 Entering Gaussian System, Link 0=g03
 Initial command:
 /usr/g03/l1.exe /tmp/gauss.10812/Gau-10843.inp -scrdir=/tmp/gauss.10812/
 Entering Link 1 = /usr/g03/l1.exe PID=     10844.
  
 Copyright (c) 1988,1990,1992,1993,1995,1998,2003,2004, Gaussian, Inc.
                  All Rights Reserved.
  
 This is the Gaussian(R) 03 program.  It is based on the
 the Gaussian(R) 98 system (copyright 1998, Gaussian, Inc.),
 the Gaussian(R) 94 system (copyright 1995, Gaussian, Inc.),
 the Gaussian 92(TM) system (copyright 1992, Gaussian, Inc.),
 the Gaussian 90(TM) system (copyright 1990, Gaussian, Inc.),
 the Gaussian 88(TM) system (copyright 1988, Gaussian, Inc.),
 the Gaussian 86(TM) system (copyright 1986, Carnegie Mellon
 University), and the Gaussian 82(TM) system (copyright 1983,
 Carnegie Mellon University). Gaussian is a federally registered
 trademark of Gaussian, Inc.
  
 This software contains proprietary and confidential information,
 including trade secrets, belonging to Gaussian, Inc.
  
 This software is provided under written license and may be
 used, copied, transmitted, or stored only in accord with that
 written license.
  
 The following legend is applicable only to US Government
 contracts under FAR:
  
                    RESTRICTED RIGHTS LEGEND
  
 Use, reproduction and disclosure by the US Government is
 subject to restrictions as set forth in subparagraphs (a)
 and (c) of the Commercial Computer Software - Restricted
 Rights clause in FAR 52.227-19.
  
 Gaussian, Inc.
 340 Quinnipiac St., Bldg. 40, Wallingford CT 06492
  
  
 ---------------------------------------------------------------
 Warning -- This program may not be used in any manner that
 competes with the business of Gaussian, Inc. or will provide
 assistance to any competitor of Gaussian, Inc.  The licensee
 of this program is prohibited from giving any competitor of
 Gaussian, Inc. access to this program.  By using this program,
 the user acknowledges that Gaussian, Inc. is engaged in the
 business of creating and licensing software in the field of
 computational chemistry and represents and warrants to the
 licensee that it is not a competitor of Gaussian, Inc. and that
 it will not use this program in any manner prohibited above.
 ---------------------------------------------------------------
  

 Cite this work as:
 Gaussian 03, Revision C.02,
 M. J. Frisch, G. W. Trucks, H. B. Schlegel, G. E. Scuseria, 
 M. A. Robb, J. R. Cheeseman, J. A. Montgomery, Jr., T. Vreven, 
 K. N. Kudin, J. C. Burant, J. M. Millam, S. S. Iyengar, J. Tomasi, 
 V. Barone, B. Mennucci, M. Cossi, G. Scalmani, N. Rega, 
 G. A. Petersson, H. Nakatsuji, M. Hada, M. Ehara, K. Toyota, 
 R. Fukuda, J. Hasegawa, M. Ishida, T. Nakajima, Y. Honda, O. Kitao, 
 H. Nakai, M. Klene, X. Li, J. E. Knox, H. P. Hratchian, J. B. Cross, 
 C. Adamo, J. Jaramillo, R. Gomperts, R. E. Stratmann, O. Yazyev, 
 A. J. Austin, R. Cammi, C. Pomelli, J. W. Ochterski, P. Y. Ayala, 
 K. Morokuma, G. A. Voth, P. Salvador, J. J. Dannenberg, 
 V. G. Zakrzewski, S. Dapprich, A. D. Daniels, M. C. Strain, 
 O. Farkas, D. K. Malick, A. D. Rabuck, K. Raghavachari, 
 J. B. Foresman, J. V. Ortiz, Q. Cui, A. G. Baboul, S. Clifford, 
 J. Cioslowski, B. B. Stefanov, G. Liu, A. Liashenko, P. Piskorz, 
 I. Komaromi, R. L. Martin, D. J. Fox, T. Keith, M. A. Al-Laham, 
 C. Y. Peng, A. Nanayakkara, M. Challacombe, P. M. W. Gill, 
 B. Johnson, W. Chen, M. W. Wong, C. Gonzalez, and J. A. Pople, 
 Gaussian, Inc., Wallingford CT, 2004.
 
 ******************************************
 Gaussian 03:  AM64L-G03RevC.02 12-Jun-2004
                18-Sep-2014 
 ******************************************
 %mem=13500MB
 %nproc=6
 Will use up to    6 processors via shared memory.
 -------------------------------
 #p B3LYP/6-311+G** NMR=SPINSPIN
 -------------------------------
 1/38=1/1;
 2/17=6,18=5,40=1/2;
 3/5=4,6=6,7=111,11=2,16=1,25=1,30=1,74=-5/1,2,8,3;
 4//1;
 5/5=2,38=5/2;
 8/6=1,10=90,11=11/1;
 10/13=100,45=16,47=1/2;
 6/7=2,8=2,9=2,10=2,28=1/1;
 99/9=1/99;
 Leave Link    1 at Thu Sep 18 10:00:13 2014, MaxMem= 1769472000 cpu:       0.2
 (Enter /usr/g03/l101.exe)
 -----
 empty
 -----
 Symbolic Z-matrix:
 Charge =  0 Multiplicity = 1
 6                     4.51535   0.0068   -0.62547 
 6                     3.5875    1.11061  -0.32277 
 6                     2.34779   0.94811   0.18578 
 6                     1.71461  -0.42945   0.41384 
 6                     2.51423  -1.50985  -0.36364 
 6                     4.03566  -1.38089  -0.23363 
 1                     3.98886   2.10849  -0.48957 
 1                     2.20542  -2.50774  -0.03454 
 1                     2.25177  -1.43654  -1.42814 
 1                     4.35422  -1.55915   0.80379 
 1                     4.55658  -2.11947  -0.851 
 6                     1.76327  -0.73782   1.93434 
 1                     1.16846  -0.02986   2.5196 
 1                     1.38793  -1.74433   2.14486 
 1                     2.79146  -0.68354   2.30658 
 6                     0.23584  -0.40759  -0.1368 
 1                     0.33711  -0.25971  -1.22502 
 6                     1.53364   2.15163   0.59514 
 6                    -0.60255   0.80806   0.36137 
 1                    -0.70942   0.75715   1.45524 
 6                     0.11137   2.12157   0.01763 
 1                    -0.45654   2.97875   0.39929 
 1                     0.15897   2.23422  -1.07532 
 6                    -0.50549  -1.75551   0.05798 
 1                     0.05959  -2.55953  -0.42527 
 1                    -0.53989  -2.00995   1.12374 
 6                    -1.99457   0.72756  -0.27809 
 1                    -1.82474   0.7033   -1.36953 
 6                    -1.94341  -1.76578  -0.50444 
 1                    -1.91236  -1.69415  -1.6002 
 1                    -2.43325  -2.71814  -0.26975 
 6                    -2.74405  -0.58436   0.05102 
 6                    -3.05339  -0.77855   1.55934 
 1                    -3.63026   0.0522    1.97969 
 1                    -3.64664  -1.69016   1.68926 
 1                    -2.14309  -0.87889   2.15696 
 6                    -3.04228   1.83733  -0.04671 
 1                    -2.77882   2.77541  -0.54449 
 1                    -3.1536    2.05978   1.02131 
 6                    -4.3333    1.2099   -0.62356 
 1                    -5.24774   1.46612  -0.07759 
 1                    -4.50102   1.50848  -1.666 
 8                     5.62006   0.20672  -1.11191 
 8                    -4.87174  -1.14858  -1.03385 
 6                    -4.10447  -0.31514  -0.60369 
 1                     2.05435   3.06997   0.30259 
 1                     1.46183   2.17249   1.69377 
 
                    Isotopes and Nuclear Properties:

  Atom         1           2           3           4           5           6           7           8           9          10
 IAtWgt=          12          12          12          12          12          12           1           1           1           1
 AtmWgt=  12.0000000  12.0000000  12.0000000  12.0000000  12.0000000  12.0000000   1.0078250   1.0078250   1.0078250   1.0078250
 IAtSpn=           0           0           0           0           0           0           1           1           1           1
 AtZEff=   0.0000000   0.0000000   0.0000000   0.0000000   0.0000000   0.0000000   0.0000000   0.0000000   0.0000000   0.0000000
 AtQMom=   0.0000000   0.0000000   0.0000000   0.0000000   0.0000000   0.0000000   0.0000000   0.0000000   0.0000000   0.0000000
 AtGFac=   0.0000000   0.0000000   0.0000000   0.0000000   0.0000000   0.0000000   2.7928460   2.7928460   2.7928460   2.7928460

  Atom        11          12          13          14          15          16          17          18          19          20
 IAtWgt=           1          12           1           1           1          12           1          12          12           1
 AtmWgt=   1.0078250  12.0000000   1.0078250   1.0078250   1.0078250  12.0000000   1.0078250  12.0000000  12.0000000   1.0078250
 IAtSpn=           1           0           1           1           1           0           1           0           0           1
 AtZEff=   0.0000000   0.0000000   0.0000000   0.0000000   0.0000000   0.0000000   0.0000000   0.0000000   0.0000000   0.0000000
 AtQMom=   0.0000000   0.0000000   0.0000000   0.0000000   0.0000000   0.0000000   0.0000000   0.0000000   0.0000000   0.0000000
 AtGFac=   2.7928460   0.0000000   2.7928460   2.7928460   2.7928460   0.0000000   2.7928460   0.0000000   0.0000000   2.7928460

  Atom        21          22          23          24          25          26          27          28          29          30
 IAtWgt=          12           1           1          12           1           1          12           1          12           1
 AtmWgt=  12.0000000   1.0078250   1.0078250  12.0000000   1.0078250   1.0078250  12.0000000   1.0078250  12.0000000   1.0078250
 IAtSpn=           0           1           1           0           1           1           0           1           0           1
 AtZEff=   0.0000000   0.0000000   0.0000000   0.0000000   0.0000000   0.0000000   0.0000000   0.0000000   0.0000000   0.0000000
 AtQMom=   0.0000000   0.0000000   0.0000000   0.0000000   0.0000000   0.0000000   0.0000000   0.0000000   0.0000000   0.0000000
 AtGFac=   0.0000000   2.7928460   2.7928460   0.0000000   2.7928460   2.7928460   0.0000000   2.7928460   0.0000000   2.7928460

  Atom        31          32          33          34          35          36          37          38          39          40
 IAtWgt=           1          12          12           1           1           1          12           1           1          12
 AtmWgt=   1.0078250  12.0000000  12.0000000   1.0078250   1.0078250   1.0078250  12.0000000   1.0078250   1.0078250  12.0000000
 IAtSpn=           1           0           0           1           1           1           0           1           1           0
 AtZEff=   0.0000000   0.0000000   0.0000000   0.0000000   0.0000000   0.0000000   0.0000000   0.0000000   0.0000000   0.0000000
 AtQMom=   0.0000000   0.0000000   0.0000000   0.0000000   0.0000000   0.0000000   0.0000000   0.0000000   0.0000000   0.0000000
 AtGFac=   2.7928460   0.0000000   0.0000000   2.7928460   2.7928460   2.7928460   0.0000000   2.7928460   2.7928460   0.0000000

  Atom        41          42          43          44          45          46          47
 IAtWgt=           1           1          16          16          12           1           1
 AtmWgt=   1.0078250   1.0078250  15.9949146  15.9949146  12.0000000   1.0078250   1.0078250
 IAtSpn=           1           1           0           0           0           1           1
 AtZEff=   0.0000000   0.0000000   0.0000000   0.0000000   0.0000000   0.0000000   0.0000000
 AtQMom=   0.0000000   0.0000000   0.0000000   0.0000000   0.0000000   0.0000000   0.0000000
 AtGFac=   2.7928460   2.7928460   0.0000000   0.0000000   0.0000000   2.7928460   2.7928460
 Leave Link  101 at Thu Sep 18 10:00:23 2014, MaxMem= 1769472000 cpu:       0.2
 (Enter /usr/g03/l202.exe)
                          Input orientation:                          
 ---------------------------------------------------------------------
 Center     Atomic     Atomic              Coordinates (Angstroms)
 Number     Number      Type              X           Y           Z
 ---------------------------------------------------------------------
    1          6             0        4.515349    0.006803   -0.625466
    2          6             0        3.587500    1.110614   -0.322767
    3          6             0        2.347790    0.948107    0.185783
    4          6             0        1.714610   -0.429448    0.413839
    5          6             0        2.514228   -1.509852   -0.363638
    6          6             0        4.035658   -1.380890   -0.233625
    7          1             0        3.988860    2.108488   -0.489567
    8          1             0        2.205419   -2.507736   -0.034539
    9          1             0        2.251767   -1.436537   -1.428143
   10          1             0        4.354221   -1.559153    0.803791
   11          1             0        4.556583   -2.119469   -0.851000
   12          6             0        1.763270   -0.737822    1.934340
   13          1             0        1.168458   -0.029858    2.519602
   14          1             0        1.387927   -1.744333    2.144858
   15          1             0        2.791459   -0.683536    2.306579
   16          6             0        0.235836   -0.407594   -0.136804
   17          1             0        0.337109   -0.259712   -1.225019
   18          6             0        1.533637    2.151626    0.595135
   19          6             0       -0.602552    0.808055    0.361369
   20          1             0       -0.709423    0.757148    1.455239
   21          6             0        0.111365    2.121566    0.017625
   22          1             0       -0.456535    2.978754    0.399287
   23          1             0        0.158974    2.234224   -1.075318
   24          6             0       -0.505494   -1.755509    0.057979
   25          1             0        0.059588   -2.559527   -0.425274
   26          1             0       -0.539890   -2.009946    1.123738
   27          6             0       -1.994573    0.727555   -0.278086
   28          1             0       -1.824743    0.703296   -1.369532
   29          6             0       -1.943410   -1.765779   -0.504437
   30          1             0       -1.912361   -1.694148   -1.600200
   31          1             0       -2.433249   -2.718136   -0.269748
   32          6             0       -2.744050   -0.584364    0.051017
   33          6             0       -3.053392   -0.778549    1.559337
   34          1             0       -3.630259    0.052203    1.979685
   35          1             0       -3.646639   -1.690160    1.689261
   36          1             0       -2.143086   -0.878889    2.156956
   37          6             0       -3.042279    1.837331   -0.046710
   38          1             0       -2.778822    2.775411   -0.544486
   39          1             0       -3.153601    2.059776    1.021309
   40          6             0       -4.333302    1.209901   -0.623558
   41          1             0       -5.247736    1.466116   -0.077588
   42          1             0       -4.501016    1.508478   -1.666000
   43          8             0        5.620058    0.206720   -1.111909
   44          8             0       -4.871741   -1.148581   -1.033850
   45          6             0       -4.104475   -0.315139   -0.603694
   46          1             0        2.054349    3.069975    0.302588
   47          1             0        1.461826    2.172493    1.693768
 ---------------------------------------------------------------------
                    Distance matrix (angstroms):
                    1          2          3          4          5
     1  C    0.000000
     2  C    1.473407   0.000000
     3  C    2.498498   1.349782   0.000000
     4  C    3.019041   2.534186   1.533162   0.000000
     5  C    2.524536   2.832036   2.524109   1.552782   0.000000
     6  C    1.519650   2.533058   2.906721   2.590698   1.532411
     7  H    2.170884   1.088423   2.120305   3.525546   3.909320
     8  H    3.465238   3.884029   3.465784   2.182021   1.095190
     9  H    2.802021   3.081236   2.881060   2.166948   1.098832
    10  H    2.126254   2.997441   3.270176   2.897558   2.179655
    11  H    2.138597   3.413442   3.919657   3.540169   2.186405
    12  C    3.831581   3.440794   2.498294   1.552220   2.537848
    13  H    4.592872   3.902756   2.791765   2.211830   3.509210
    14  H    4.530115   4.367839   3.465335   2.198197   2.759726
    15  H    3.470627   3.281176   2.712356   2.192403   2.808863
    16  C    4.327210   3.684181   2.530284   1.578118   2.541160
    17  H    4.229442   3.641002   2.737157   2.147597   2.654181
    18  C    3.870496   2.478831   1.509593   2.593755   3.909888
    19  C    5.273401   4.256304   2.958879   2.627433   3.951284
    20  H    5.673675   4.663667   3.315801   2.892829   4.340453
    21  C    4.927562   3.636125   2.531182   3.038923   4.371076
    22  H    5.882367   4.512818   3.468912   4.041030   5.436458
    23  H    4.913428   3.685597   2.834676   3.425309   4.480158
    24  C    5.364858   5.011210   3.932824   2.610352   3.058893
    25  H    5.145866   5.091818   4.232346   2.824968   2.670370
    26  H    5.716855   5.372673   4.238931   2.843361   3.433660
    27  C    6.558905   5.595379   4.372635   3.946575   5.034143
    28  H    6.421488   5.527567   4.459705   4.121958   4.973582
    29  C    6.698676   6.236795   5.124059   4.001265   4.467198
    30  H    6.720030   6.304522   5.321666   4.337135   4.599754
    31  H    7.472272   7.135233   6.042117   4.786452   5.093751
    32  C    7.314778   6.565150   5.319160   4.476080   5.355180
    33  C    7.916816   7.156305   5.834446   4.916084   5.935573
    34  H    8.552181   7.649677   6.305379   5.590303   6.759134
    35  H    8.651918   8.014073   6.719678   5.653237   6.496398
    36  H    7.270563   6.553378   5.233680   4.257026   5.333112
    37  C    7.797662   6.675200   5.467871   5.289460   6.494524
    38  H    7.802351   6.584130   5.491310   5.601825   6.812677
    39  H    8.107981   6.939012   5.674435   5.501339   6.839927
    40  C    8.930066   7.927133   6.735025   6.351448   7.372468
    41  H    9.886738   8.845784   7.617724   7.232491   8.317830
    42  H    9.199597   8.208938   7.116829   6.834859   7.747265
    43  O    1.223510   2.360310   3.597415   4.240889   3.626666
    44  O    9.466739   8.784552   7.616117   6.781812   7.425109
    45  C    8.625861   7.828037   6.621993   5.908485   6.729948
    46  H    4.037428   2.565291   2.145245   3.517636   4.650824
    47  H    4.403755   3.116487   2.134964   2.910707   4.347428
                    6          7          8          9         10
     6  C    0.000000
     7  H    3.499065   0.000000
     8  H    2.158516   4.969631   0.000000
     9  H    2.147612   4.057785   1.758337   0.000000
    10  H    1.099769   3.906130   2.493984   3.068693   0.000000
    11  H    1.094538   4.281187   2.518994   2.472179   1.758760
    12  C    3.205832   4.350868   2.684134   3.468879   2.943765
    13  H    4.198379   4.645674   3.706589   4.328625   3.928338
    14  H    3.577674   5.343152   2.449663   3.688807   3.260621
    15  H    2.913240   4.128874   3.025224   3.847912   2.338226
    16  C    3.923688   4.532141   2.881026   2.605812   4.378573
    17  H    3.989883   4.414130   3.156174   2.256566   4.684208
    18  C    4.407451   2.684504   4.749467   4.181421   4.665738
    19  C    5.163186   4.847296   4.363017   4.048170   5.510808
    20  H    5.471678   5.261393   4.623333   4.679187   5.606258
    21  C    5.265966   3.910548   5.081163   4.396779   5.671647
    22  H    6.291810   4.616163   6.113573   5.492649   6.625677
    23  H    5.367138   3.876460   5.268524   4.240136   5.959938
    24  C    4.565899   5.952268   2.814863   3.148458   4.920531
    25  H    4.151511   6.101940   2.181730   2.659418   4.577687
    26  H    4.813916   6.330389   3.020947   3.825473   4.925231
    27  C    6.388365   6.144361   5.307198   4.902788   6.834228
    28  H    6.322849   6.045402   5.323076   4.604373   6.929762
    29  C    5.997561   7.085336   4.240765   4.308265   6.435395
    30  H    6.111022   7.107598   4.479881   4.175635   6.713229
    31  H    6.605777   8.036672   4.649391   4.993371   6.968893
    32  C    6.832270   7.271572   5.310737   5.279422   7.204327
    33  C    7.337040   7.882024   5.760696   6.123945   7.486850
    34  H    8.106712   8.269008   6.683227   6.959013   8.229892
    35  H    7.925328   8.802151   6.155201   6.676356   8.050775
    36  H    6.644077   7.316370   5.134714   5.699003   6.671493
    37  C    7.777472   7.050288   6.813082   6.376009   8.183378
    38  H    7.988029   6.800685   7.281095   6.620286   8.454975
    39  H    8.068363   7.300676   7.120118   6.887817   8.337347
    40  C    8.769478   8.371606   7.544709   7.142417   9.229195
    41  H    9.711395   9.268067   8.446471   8.154259  10.105774
    42  H    9.125511   8.591973   7.985481   7.370873   9.691514
    43  O    2.408778   2.581635   4.493190   3.761075   2.896646
    44  O    8.946289   9.455950   7.275446   7.140221   9.416149
    45  C    8.217940   8.449205   6.704191   6.506847   8.664763
    46  H    4.901358   2.300935   5.589932   4.831465   5.193211
    47  H    4.792284   3.340202   5.044256   4.836883   4.804497
                   11         12         13         14         15
    11  H    0.000000
    12  C    4.179673   0.000000
    13  H    5.216016   1.094324   0.000000
    14  H    4.376788   1.094653   1.768622   0.000000
    15  H    3.892027   1.094843   1.762613   1.766733   0.000000
    16  C    4.702068   2.594560   2.840592   2.884470   3.546473
    17  H    4.626289   3.499153   3.842676   3.829411   4.321533
    18  C    5.428790   3.192978   2.931860   4.195399   3.542499
    19  C    6.054495   3.234360   2.914883   3.695609   4.186645
    20  H    6.428412   2.928939   2.297539   3.336444   3.880274
    21  C    6.204905   3.818205   3.464962   4.593463   4.504532
    22  H    7.258543   4.593132   4.023442   5.362519   5.253532
    23  H    6.192247   4.523811   4.366758   5.263912   5.184643
    24  C    5.155903   3.115077   3.440868   2.817842   4.132218
    25  H    4.538486   3.433500   4.037464   3.005762   4.294820
    26  H    5.466774   2.753166   2.964395   2.197661   3.775760
    27  C    7.165991   4.600385   4.290163   4.839648   5.619410
    28  H    6.997014   5.085885   4.962069   5.353791   6.061882
    29  C    6.518827   4.554537   4.673538   4.256410   5.611777
    30  H    6.526058   5.188236   5.406854   4.991981   6.197595
    31  H    7.039461   5.137161   5.289575   4.623851   6.170464
    32  C    7.514614   4.887370   4.659303   4.775242   5.978232
    33  C    8.094412   4.831410   4.393935   4.582673   5.893189
    34  H    8.930471   5.451271   4.829692   5.332637   6.471988
    35  H    8.598260   5.498557   5.160545   5.055429   6.545493
    36  H    7.447980   3.915236   3.437832   3.635546   4.940676
    37  C    8.604990   5.800799   5.272823   6.103934   6.776816
    38  H    8.823943   6.254437   5.730549   6.709877   7.149889
    39  H    8.967640   5.730253   5.029080   6.029849   6.672437
    40  C    9.495604   6.892362   6.456456   7.008858   7.933034
    41  H   10.468011   7.619672   7.081729   7.699238   8.656438
    42  H    9.791135   7.566346   7.213091   7.731951   8.588743
    43  O    2.571032   5.004658   5.749833   5.685426   4.525438
    44  O    9.479945   7.280264   7.096659   7.045747   8.372536
    45  C    8.850463   6.407083   6.135160   6.305840   7.493952
    46  H    5.875565   4.152910   3.912661   5.197657   4.318351
    47  H    5.871482   2.935758   2.370320   3.943408   3.209418
                   16         17         18         19         20
    16  C    0.000000
    17  H    1.102877   0.000000
    18  C    2.961356   3.249491   0.000000
    19  C    1.558484   2.130661   2.534390   0.000000
    20  H    2.187405   3.051724   2.777709   1.100257   0.000000
    21  C    2.536926   2.695479   1.535343   1.533998   2.145242
    22  H    3.497731   3.708895   2.164089   2.175935   2.472756
    23  H    2.804625   2.504767   2.164933   2.162857   3.056074
    24  C    1.550608   2.143239   4.439853   2.583278   2.882250
    25  H    2.178324   2.450665   5.040736   3.521057   3.889478
    26  H    2.181341   3.057631   4.679489   2.919976   2.792032
    27  C    2.506641   2.703353   3.903685   1.533984   2.157986
    28  H    2.645691   2.371049   4.151661   2.121496   3.037461
    29  C    2.594019   2.826348   5.352100   3.028554   3.424648
    30  H    2.900259   2.694157   5.611094   3.438659   4.097758
    31  H    3.532746   3.825085   6.340251   4.022907   4.245557
    32  C    2.991027   3.350703   5.106889   2.573162   2.812686
    33  C    3.719344   4.417842   5.527789   3.155797   2.804174
    34  H    4.431437   5.109543   5.743725   3.515291   3.050127
    35  H    4.478069   5.139013   6.541536   4.155820   3.830316
    36  H    3.338072   4.239399   5.014140   2.905711   2.285698
    37  C    3.974147   4.148043   4.631388   2.679217   2.977392
    38  H    4.402941   4.402740   4.503903   3.070377   3.514925
    39  H    4.349416   4.755110   4.707469   2.917221   2.803416
    40  C    4.871370   4.932976   6.065726   3.879440   4.202247
    41  H    5.795158   5.956977   6.849051   4.712055   4.842363
    42  H    5.333623   5.169953   6.476373   4.449589   4.968179
    43  O    5.506184   5.304706   4.836889   6.422852   6.852412
    44  O    5.238425   5.287604   7.387410   4.899085   5.210783
    45  C    4.366330   4.485174   6.269803   3.802154   4.112831
    46  H    3.948866   4.045901   1.095486   3.489822   3.783677
    47  H    3.392771   3.962313   1.101175   2.810451   2.602772
                   21         22         23         24         25
    21  C    0.000000
    22  H    1.096790   0.000000
    23  H    1.099765   1.762849   0.000000
    24  C    3.926048   4.746803   4.200458   0.000000
    25  H    4.702284   5.623063   4.838645   1.095124   0.000000
    26  H    4.326316   5.041716   4.830863   1.096250   1.749529
    27  C    2.542771   2.809322   2.746524   2.914773   3.878937
    28  H    2.772040   3.190364   2.522981   3.134315   3.884371
    29  C    4.427878   5.053524   4.554772   1.544027   2.155992
    30  H    4.612212   5.287097   4.471916   2.175453   2.453144
    31  H    5.475432   6.067088   5.647516   2.179517   2.502715
    32  C    3.934027   4.248509   4.200073   2.526413   3.462442
    33  C    4.561056   4.712399   5.132008   3.114532   4.098928
    34  H    4.704433   4.597269   5.334093   4.089613   5.120540
    35  H    5.607693   5.799962   6.125878   3.540077   4.354673
    36  H    4.319956   4.562375   5.043664   2.802833   3.787378
    37  C    3.167081   2.861439   3.385791   4.399402   5.394187
    38  H    3.016067   2.514970   3.034026   5.104921   6.044199
    39  H    3.416314   2.916436   3.924211   4.743087   5.809918
    40  C    4.582283   4.382280   4.629673   4.889812   5.791838
    41  H    5.399874   5.046889   5.551393   5.734641   6.670410
    42  H    4.948184   4.773358   4.753012   5.439661   6.235958
    43  O    5.940386   6.847837   5.825423   6.537688   6.248393
    44  O    6.052339   6.211507   6.062440   4.541428   5.165185
    45  C    4.908857   5.016290   4.989858   3.932574   4.733765
    46  H    2.180796   2.514401   2.487881   5.467900   6.016656
    47  H    2.153089   2.450683   3.060894   4.687788   5.371091
                   26         27         28         29         30
    26  H    0.000000
    27  C    3.402224   0.000000
    28  H    3.902425   1.104846   0.000000
    29  C    2.163432   2.504110   2.618932   0.000000
    30  H    3.066471   2.760324   2.410108   1.098541   0.000000
    31  H    2.455228   3.473513   3.644997   1.096360   1.757833
    32  C    2.835725   1.546336   2.126300   1.531436   2.156350
    33  C    2.832627   2.601071   3.504813   2.542803   3.481802
    34  H    3.812543   2.868641   3.860190   3.510182   4.337798
    35  H    3.173952   3.527764   4.290006   2.778312   3.718641
    36  H    2.217446   2.920984   3.878243   2.812376   3.851507
    37  C    4.736395   1.543640   2.125626   3.794658   4.020123
    38  H    5.540346   2.209011   2.425825   4.617567   4.673569
    39  H    4.837832   2.192393   3.053199   4.292707   4.743936
    40  C    5.273560   2.412812   2.665707   3.818435   3.904905
    41  H    5.974111   3.341967   3.737365   4.641758   4.840490
    42  H    5.987693   2.969580   2.810453   4.314086   4.118529
    43  O    6.917853   7.677834   7.465790   7.840014   7.783898
    44  O    4.915493   3.516982   3.581386   3.039134   3.062079
    45  C    4.308440   2.375904   2.611684   2.604690   2.774897
    46  H    5.762808   4.713585   4.841953   6.325969   6.484771
    47  H    4.671680   4.233527   4.726932   5.651347   6.098055
                   31         32         33         34         35
    31  H    0.000000
    32  C    2.180016   0.000000
    33  C    2.737175   1.551912   0.000000
    34  H    3.763982   2.215930   1.095270   0.000000
    35  H    2.523245   2.172854   1.095380   1.766478   0.000000
    36  H    3.058744   2.209724   1.093560   1.763531   1.771319
    37  C    4.601407   2.441945   3.069583   2.763816   3.977693
    38  H    5.511258   3.412319   4.139093   3.809494   5.067944
    39  H    5.001418   2.846168   2.890606   2.275090   3.840738
    40  C    4.377769   2.490012   3.218250   2.934520   3.772399
    41  H    5.046407   3.238742   3.540225   2.974517   3.955673
    42  H    4.908100   3.227238   4.210571   4.021191   4.713706
    43  O    8.609284   8.481540   9.128803   9.754496   9.864907
    44  O    2.998933   2.454047   3.188720   3.473407   3.034718
    45  C    2.945999   1.533586   2.449128   2.652106   2.712552
    46  H    7.346314   6.036730   6.517636   6.650892   7.555330
    47  H    6.553263   5.290395   5.395731   5.523288   6.404414
                   36         37         38         39         40
    36  H    0.000000
    37  C    3.611446   0.000000
    38  H    4.588666   1.094159   0.000000
    39  H    3.308563   1.096603   1.761904   0.000000
    40  C    4.109909   1.546985   2.207596   2.195352   0.000000
    41  H    4.486768   2.236693   2.833334   2.438321   1.095408
    42  H    5.086683   2.204123   2.414304   3.056319   1.097252
    43  O    8.492964   8.878605   8.801212   9.217458  10.015699
    44  O    4.207082   3.638275   4.474092   4.179622   2.453710
    45  C    3.433082   2.464065   3.363385   3.030679   1.542240
    46  H    6.053980   5.255191   4.915673   5.353485   6.717120
    47  H    4.745615   4.840306   4.832845   4.665520   6.315069
                   41         42         43         44         45
    41  H    0.000000
    42  H    1.755687   0.000000
    43  O   10.989306  10.219478   0.000000
    44  O    2.809350   2.756268  10.579262   0.000000
    45  C    2.180987   2.147398   9.751777   1.211758   0.000000
    46  H    7.485809   7.020429   4.786785   8.219063   7.086004
    47  H    6.975306   6.876368   5.387669   7.653986   6.515393
                   46         47
    46  H    0.000000
    47  H    1.758391   0.000000
 Stoichiometry    C19H26O2
 Framework group  C1[X(C19H26O2)]
 Deg. of freedom   135
 Full point group                 C1      NOp   1
 Largest Abelian subgroup         C1      NOp   1
 Largest concise Abelian subgroup C1      NOp   1
                         Standard orientation:                         
 ---------------------------------------------------------------------
 Center     Atomic     Atomic              Coordinates (Angstroms)
 Number     Number      Type              X           Y           Z
 ---------------------------------------------------------------------
    1          6             0        4.515349    0.006803   -0.625466
    2          6             0        3.587500    1.110614   -0.322767
    3          6             0        2.347790    0.948107    0.185783
    4          6             0        1.714610   -0.429448    0.413839
    5          6             0        2.514228   -1.509852   -0.363638
    6          6             0        4.035658   -1.380890   -0.233625
    7          1             0        3.988860    2.108488   -0.489567
    8          1             0        2.205419   -2.507736   -0.034539
    9          1             0        2.251767   -1.436537   -1.428143
   10          1             0        4.354221   -1.559153    0.803791
   11          1             0        4.556583   -2.119469   -0.851000
   12          6             0        1.763270   -0.737822    1.934340
   13          1             0        1.168458   -0.029858    2.519602
   14          1             0        1.387927   -1.744333    2.144858
   15          1             0        2.791459   -0.683536    2.306579
   16          6             0        0.235836   -0.407594   -0.136804
   17          1             0        0.337109   -0.259712   -1.225019
   18          6             0        1.533637    2.151626    0.595135
   19          6             0       -0.602552    0.808055    0.361369
   20          1             0       -0.709423    0.757148    1.455239
   21          6             0        0.111365    2.121566    0.017625
   22          1             0       -0.456535    2.978754    0.399287
   23          1             0        0.158974    2.234224   -1.075318
   24          6             0       -0.505494   -1.755509    0.057979
   25          1             0        0.059588   -2.559527   -0.425274
   26          1             0       -0.539890   -2.009946    1.123738
   27          6             0       -1.994573    0.727555   -0.278086
   28          1             0       -1.824743    0.703296   -1.369532
   29          6             0       -1.943410   -1.765779   -0.504437
   30          1             0       -1.912361   -1.694148   -1.600200
   31          1             0       -2.433249   -2.718136   -0.269748
   32          6             0       -2.744050   -0.584364    0.051017
   33          6             0       -3.053392   -0.778549    1.559337
   34          1             0       -3.630259    0.052203    1.979685
   35          1             0       -3.646639   -1.690160    1.689261
   36          1             0       -2.143086   -0.878889    2.156956
   37          6             0       -3.042279    1.837331   -0.046710
   38          1             0       -2.778822    2.775411   -0.544486
   39          1             0       -3.153601    2.059776    1.021309
   40          6             0       -4.333302    1.209901   -0.623558
   41          1             0       -5.247736    1.466116   -0.077588
   42          1             0       -4.501016    1.508478   -1.666000
   43          8             0        5.620058    0.206720   -1.111909
   44          8             0       -4.871741   -1.148581   -1.033850
   45          6             0       -4.104475   -0.315139   -0.603694
   46          1             0        2.054349    3.069975    0.302588
   47          1             0        1.461826    2.172493    1.693768
 ---------------------------------------------------------------------
 Rotational constants (GHZ):      0.7645022      0.1713345      0.1564440
 Leave Link  202 at Thu Sep 18 10:00:34 2014, MaxMem= 1769472000 cpu:       0.3
 (Enter /usr/g03/l301.exe)
 Standard basis: 6-311+G(d,p) (5D, 7F)
 There are   618 symmetry adapted basis functions of A   symmetry.
 Integral buffers will be    131072 words long.
 Raffenetti 2 integral format.
 Two-electron integral symmetry is turned on.
   618 basis functions,   964 primitive gaussians,   639 cartesian basis functions
    78 alpha electrons       78 beta electrons
       nuclear repulsion energy      1785.1529431157 Hartrees.
 IExCor= 402 DFT=T Ex=B+HF Corr=LYP ExCW=0 ScaHFX=  0.200000
 ScaDFX=  0.800000  0.720000  1.000000  0.810000
 IRadAn=      0 IRanWt=     -1 IRanGd=            0 ICorTp=0
 NAtoms=   47 NActive=   47 NUniq=   47 SFac= 1.00D+00 NAtFMM=   60 Big=F
 Leave Link  301 at Thu Sep 18 10:00:45 2014, MaxMem= 1769472000 cpu:       0.2
 (Enter /usr/g03/l302.exe)
 NPDir=0 NMtPBC=     1 NCelOv=     1 NCel=       1 NClECP=     1 NCelD=      1
         NCelK=      1 NCelE2=     1 NClLst=     1 CellRange=     0.0.
 One-electron integrals computed using PRISM.
 NBasis=   618 RedAO= T  NBF=   618
 NBsUse=   616 1.00D-06 NBFU=   616
 Precomputing XC quadrature grid using
 IXCGrd= 2 IRadAn=           0 IRanWt=          -1 IRanGd=           0.
 NRdTot=    3051 NPtTot=      389364 NUsed=      410910 NTot=      410942
 NSgBfM=   627   627   627   627.
 Leave Link  302 at Thu Sep 18 10:00:58 2014, MaxMem= 1769472000 cpu:      10.7
 (Enter /usr/g03/l308.exe)
 Leave Link  308 at Thu Sep 18 10:01:09 2014, MaxMem= 1769472000 cpu:       1.9
 (Enter /usr/g03/l303.exe)
 DipDrv:  MaxL=1.
 Leave Link  303 at Thu Sep 18 10:01:20 2014, MaxMem= 1769472000 cpu:       0.7
 (Enter /usr/g03/l401.exe)
 Harris functional with IExCor=  402 diagonalized for initial guess.
 ExpMin= 4.38D-02 ExpMax= 8.59D+03 ExpMxC= 1.30D+03 IAcc=2 IRadAn=         4 AccDes= 0.00D+00
 HarFok:  IExCor= 402 AccDes= 0.00D+00 IRadAn=         4 IDoV=1
 ScaDFX=  1.000000  1.000000  1.000000  1.000000
 Harris En= -890.678644091160    
 Initial guess orbital symmetries:
       Occupied  (A) (A) (A) (A) (A) (A) (A) (A) (A) (A) (A) (A)
                 (A) (A) (A) (A) (A) (A) (A) (A) (A) (A) (A) (A)
                 (A) (A) (A) (A) (A) (A) (A) (A) (A) (A) (A) (A)
                 (A) (A) (A) (A) (A) (A) (A) (A) (A) (A) (A) (A)
                 (A) (A) (A) (A) (A) (A) (A) (A) (A) (A) (A) (A)
                 (A) (A) (A) (A) (A) (A) (A) (A) (A) (A) (A) (A)
                 (A) (A) (A) (A) (A) (A)
       Virtual   (A) (A) (A) (A) (A) (A) (A) (A) (A) (A) (A) (A)
                 (A) (A) (A) (A) (A) (A) (A) (A) (A) (A) (A) (A)
                 (A) (A) (A) (A) (A) (A) (A) (A) (A) (A) (A) (A)
                 (A) (A) (A) (A) (A) (A) (A) (A) (A) (A) (A) (A)
                 (A) (A) (A) (A) (A) (A) (A) (A) (A) (A) (A) (A)
                 (A) (A) (A) (A) (A) (A) (A) (A) (A) (A) (A) (A)
                 (A) (A) (A) (A) (A) (A) (A) (A) (A) (A) (A) (A)
                 (A) (A) (A) (A) (A) (A) (A) (A) (A) (A) (A) (A)
                 (A) (A) (A) (A) (A) (A) (A) (A) (A) (A) (A) (A)
                 (A) (A) (A) (A) (A) (A) (A) (A) (A) (A) (A) (A)
                 (A) (A) (A) (A) (A) (A) (A) (A) (A) (A) (A) (A)
                 (A) (A) (A) (A) (A) (A) (A) (A) (A) (A) (A) (A)
                 (A) (A) (A) (A) (A) (A) (A) (A) (A) (A) (A) (A)
                 (A) (A) (A) (A) (A) (A) (A) (A) (A) (A) (A) (A)
                 (A) (A) (A) (A) (A) (A) (A) (A) (A) (A) (A) (A)
                 (A) (A) (A) (A) (A) (A) (A) (A) (A) (A) (A) (A)
                 (A) (A) (A) (A) (A) (A) (A) (A) (A) (A) (A) (A)
                 (A) (A) (A) (A) (A) (A) (A) (A) (A) (A) (A) (A)
                 (A) (A) (A) (A) (A) (A) (A) (A) (A) (A) (A) (A)
                 (A) (A) (A) (A) (A) (A) (A) (A) (A) (A) (A) (A)
                 (A) (A) (A) (A) (A) (A) (A) (A) (A) (A) (A) (A)
                 (A) (A) (A) (A) (A) (A) (A) (A) (A) (A) (A) (A)
                 (A) (A) (A) (A) (A) (A) (A) (A) (A) (A) (A) (A)
                 (A) (A) (A) (A) (A) (A) (A) (A) (A) (A) (A) (A)
                 (A) (A) (A) (A) (A) (A) (A) (A) (A) (A) (A) (A)
                 (A) (A) (A) (A) (A) (A) (A) (A) (A) (A) (A) (A)
                 (A) (A) (A) (A) (A) (A) (A) (A) (A) (A) (A) (A)
                 (A) (A) (A) (A) (A) (A) (A) (A) (A) (A) (A) (A)
                 (A) (A) (A) (A) (A) (A) (A) (A) (A) (A) (A) (A)
                 (A) (A) (A) (A) (A) (A) (A) (A) (A) (A) (A) (A)
                 (A) (A) (A) (A) (A) (A) (A) (A) (A) (A) (A) (A)
                 (A) (A) (A) (A) (A) (A) (A) (A) (A) (A) (A) (A)
                 (A) (A) (A) (A) (A) (A) (A) (A) (A) (A) (A) (A)
                 (A) (A) (A) (A) (A) (A) (A) (A) (A) (A) (A) (A)
                 (A) (A) (A) (A) (A) (A) (A) (A) (A) (A) (A) (A)
                 (A) (A) (A) (A) (A) (A) (A) (A) (A) (A) (A) (A)
                 (A) (A) (A) (A) (A) (A) (A) (A) (A) (A) (A) (A)
                 (A) (A) (A) (A) (A) (A) (A) (A) (A) (A) (A) (A)
                 (A) (A) (A) (A) (A) (A) (A) (A) (A) (A) (A) (A)
                 (A) (A) (A) (A) (A) (A) (A) (A) (A) (A) (A) (A)
                 (A) (A) (A) (A) (A) (A) (A) (A) (A) (A) (A) (A)
                 (A) (A) (A) (A) (A) (A) (A) (A) (A) (A) (A) (A)
                 (A) (A) (A) (A) (A) (A) (A) (A) (A) (A) (A) (A)
                 (A) (A) (A) (A) (A) (A) (A) (A) (A) (A) (A) (A)
                 (A) (A) (A) (A) (A) (A) (A) (A) (A) (A)
 The electronic state of the initial guess is 1-A.
 Leave Link  401 at Thu Sep 18 10:01:51 2014, MaxMem= 1769472000 cpu:     119.3
 (Enter /usr/g03/l502.exe)
 Closed shell SCF:
 Requested convergence on RMS density matrix=1.00D-08 within 128 cycles.
 Requested convergence on MAX density matrix=1.00D-06.
 Requested convergence on             energy=1.00D-06.
 No special actions if energy rises.
 Using DIIS extrapolation, IDIIS=  1040.
 Integral symmetry usage will be decided dynamically.
       410909 words used for storage of precomputed grid.
 IEnd=   1865431 IEndB=   1865431 NGot=1769472000 MDV=1768032170
 LenX=1768032170
 Fock matrices will be formed incrementally for  20 cycles.

 Cycle   1  Pass 1  IDiag  1:
 Petite list used in FoFDir.
 MinBra= 0 MaxBra= 2 Meth= 1.
 IRaf=       0 NMat=   1 IRICut=       1 DoRegI=T DoRafI=F ISym2E= 1 JSym2E=1.
 E= -889.580177951560    
 DIIS: error= 3.16D-02 at cycle   1 NSaved=   1.
 NSaved= 1 IEnMin= 1 EnMin= -889.580177951560     IErMin= 1 ErrMin= 3.16D-02
 ErrMax= 3.16D-02 EMaxC= 1.00D-01 BMatC= 8.43D-01 BMatP= 8.43D-01
 IDIUse=3 WtCom= 6.84D-01 WtEn= 3.16D-01
 Coeff-Com:  0.100D+01
 Coeff-En:   0.100D+01
 Coeff:      0.100D+01
 Gap=     0.146 Goal=   None    Shift=    0.000
 GapD=    0.146 DampG=1.000 DampE=0.500 DampFc=0.5000 IDamp=-1.
 Damping current iteration by 5.00D-01
 RMSDP=3.27D-02 MaxDP=7.60D+00              OVMax= 2.03D-01

 Cycle   2  Pass 1  IDiag  1:
 RMSU=  1.61D-02    CP:  1.10D+00
 E= -889.884439369028     Delta-E=       -0.304261417469 Rises=F Damp=T
 DIIS: error= 1.04D-02 at cycle   2 NSaved=   2.
 NSaved= 2 IEnMin= 2 EnMin= -889.884439369028     IErMin= 2 ErrMin= 1.04D-02
 ErrMax= 1.04D-02 EMaxC= 1.00D-01 BMatC= 5.69D-02 BMatP= 8.43D-01
 IDIUse=3 WtCom= 8.96D-01 WtEn= 1.04D-01
 Coeff-Com:  0.118D+00 0.882D+00
 Coeff-En:   0.220D+00 0.780D+00
 Coeff:      0.129D+00 0.871D+00
 Gap=     0.246 Goal=   None    Shift=    0.000
 RMSDP=1.55D-02 MaxDP=3.45D+00 DE=-3.04D-01 OVMax= 1.46D-01

 Cycle   3  Pass 1  IDiag  1:
 RMSU=  6.16D-03    CP:  1.07D+00  1.18D-01
 E= -890.325505848066     Delta-E=       -0.441066479038 Rises=F Damp=F
 DIIS: error= 1.39D-02 at cycle   3 NSaved=   3.
 NSaved= 3 IEnMin= 3 EnMin= -890.325505848066     IErMin= 2 ErrMin= 1.04D-02
 ErrMax= 1.39D-02 EMaxC= 1.00D-01 BMatC= 5.84D-02 BMatP= 5.69D-02
 IDIUse=3 WtCom= 8.61D-01 WtEn= 1.39D-01
 Coeff-Com:  0.180D-01 0.505D+00 0.477D+00
 Coeff-En:   0.000D+00 0.000D+00 0.100D+01
 Coeff:      0.155D-01 0.435D+00 0.550D+00
 Gap=     0.180 Goal=   None    Shift=    0.000
 RMSDP=2.99D-03 MaxDP=2.61D-01 DE=-4.41D-01 OVMax= 6.64D-02

 Cycle   4  Pass 1  IDiag  1:
 RMSU=  2.33D-03    CP:  1.05D+00  1.49D-01  7.28D-01
 E= -890.353530538262     Delta-E=       -0.028024690196 Rises=F Damp=F
 DIIS: error= 8.68D-03 at cycle   4 NSaved=   4.
 NSaved= 4 IEnMin= 4 EnMin= -890.353530538262     IErMin= 4 ErrMin= 8.68D-03
 ErrMax= 8.68D-03 EMaxC= 1.00D-01 BMatC= 2.24D-02 BMatP= 5.69D-02
 IDIUse=3 WtCom= 9.13D-01 WtEn= 8.68D-02
 Coeff-Com: -0.540D-02 0.153D+00 0.386D+00 0.466D+00
 Coeff-En:   0.000D+00 0.000D+00 0.316D+00 0.684D+00
 Coeff:     -0.493D-02 0.140D+00 0.380D+00 0.485D+00
 Gap=     0.190 Goal=   None    Shift=    0.000
 RMSDP=2.20D-03 MaxDP=4.60D-01 DE=-2.80D-02 OVMax= 2.74D-02

 Cycle   5  Pass 1  IDiag  1:
 RMSU=  1.08D-03    CP:  9.82D-01  1.21D-01  6.25D-01  8.16D-01
 E= -890.370367710459     Delta-E=       -0.016837172197 Rises=F Damp=F
 DIIS: error= 1.51D-03 at cycle   5 NSaved=   5.
 NSaved= 5 IEnMin= 5 EnMin= -890.370367710459     IErMin= 5 ErrMin= 1.51D-03
 ErrMax= 1.51D-03 EMaxC= 1.00D-01 BMatC= 1.02D-03 BMatP= 2.24D-02
 IDIUse=3 WtCom= 9.85D-01 WtEn= 1.51D-02
 Coeff-Com: -0.499D-02 0.451D-01 0.171D+00 0.277D+00 0.512D+00
 Coeff-En:   0.000D+00 0.000D+00 0.000D+00 0.000D+00 0.100D+01
 Coeff:     -0.492D-02 0.444D-01 0.168D+00 0.273D+00 0.519D+00
 Gap=     0.188 Goal=   None    Shift=    0.000
 RMSDP=6.92D-04 MaxDP=7.26D-02 DE=-1.68D-02 OVMax= 1.28D-02

 Cycle   6  Pass 1  IDiag  1:
 RMSU=  1.85D-04    CP:  9.98D-01  1.25D-01  6.87D-01  7.17D-01  7.42D-01
 E= -890.371138614777     Delta-E=       -0.000770904318 Rises=F Damp=F
 DIIS: error= 4.48D-04 at cycle   6 NSaved=   6.
 NSaved= 6 IEnMin= 6 EnMin= -890.371138614777     IErMin= 6 ErrMin= 4.48D-04
 ErrMax= 4.48D-04 EMaxC= 1.00D-01 BMatC= 1.50D-04 BMatP= 1.02D-03
 IDIUse=3 WtCom= 9.96D-01 WtEn= 4.48D-03
 Coeff-Com: -0.205D-02 0.416D-02 0.452D-01 0.981D-01 0.325D+00 0.529D+00
 Coeff-En:   0.000D+00 0.000D+00 0.000D+00 0.000D+00 0.129D+00 0.871D+00
 Coeff:     -0.204D-02 0.414D-02 0.450D-01 0.977D-01 0.324D+00 0.531D+00
 Gap=     0.186 Goal=   None    Shift=    0.000
 RMSDP=2.08D-04 MaxDP=4.61D-02 DE=-7.71D-04 OVMax= 6.64D-03

 Cycle   7  Pass 1  IDiag  1:
 RMSU=  1.07D-04    CP:  9.92D-01  1.20D-01  6.84D-01  7.44D-01  7.65D-01
                    CP:  7.54D-01
 E= -890.371266364100     Delta-E=       -0.000127749322 Rises=F Damp=F
 DIIS: error= 1.52D-04 at cycle   7 NSaved=   7.
 NSaved= 7 IEnMin= 7 EnMin= -890.371266364100     IErMin= 7 ErrMin= 1.52D-04
 ErrMax= 1.52D-04 EMaxC= 1.00D-01 BMatC= 1.47D-05 BMatP= 1.50D-04
 IDIUse=3 WtCom= 9.98D-01 WtEn= 1.52D-03
 Coeff-Com: -0.762D-03-0.620D-03 0.159D-01 0.407D-01 0.166D+00 0.331D+00
 Coeff-Com:  0.448D+00
 Coeff-En:   0.000D+00 0.000D+00 0.000D+00 0.000D+00 0.000D+00 0.285D-01
 Coeff-En:   0.971D+00
 Coeff:     -0.760D-03-0.619D-03 0.158D-01 0.407D-01 0.166D+00 0.331D+00
 Coeff:      0.449D+00
 Gap=     0.186 Goal=   None    Shift=    0.000
 RMSDP=7.04D-05 MaxDP=1.43D-02 DE=-1.28D-04 OVMax= 2.12D-03

 Cycle   8  Pass 1  IDiag  1:
 RMSU=  4.48D-05    CP:  9.94D-01  1.21D-01  6.83D-01  7.45D-01  7.58D-01
                    CP:  6.89D-01  7.33D-01
 E= -890.371280092466     Delta-E=       -0.000013728367 Rises=F Damp=F
 DIIS: error= 3.43D-05 at cycle   8 NSaved=   8.
 NSaved= 8 IEnMin= 8 EnMin= -890.371280092466     IErMin= 8 ErrMin= 3.43D-05
 ErrMax= 3.43D-05 EMaxC= 1.00D-01 BMatC= 1.06D-06 BMatP= 1.47D-05
 IDIUse=1 WtCom= 1.00D+00 WtEn= 0.00D+00
 Coeff-Com: -0.387D-05-0.969D-03 0.222D-02 0.754D-02 0.426D-01 0.980D-01
 Coeff-Com:  0.245D+00 0.605D+00
 Coeff:     -0.387D-05-0.969D-03 0.222D-02 0.754D-02 0.426D-01 0.980D-01
 Coeff:      0.245D+00 0.605D+00
 Gap=     0.186 Goal=   None    Shift=    0.000
 RMSDP=2.02D-05 MaxDP=2.40D-03 DE=-1.37D-05 OVMax= 2.75D-04

 Cycle   9  Pass 1  IDiag  1:
 RMSU=  1.24D-05    CP:  9.94D-01  1.20D-01  6.83D-01  7.44D-01  7.63D-01
                    CP:  7.03D-01  7.47D-01  7.61D-01
 E= -890.371280963407     Delta-E=       -0.000000870941 Rises=F Damp=F
 DIIS: error= 1.51D-05 at cycle   9 NSaved=   9.
 NSaved= 9 IEnMin= 9 EnMin= -890.371280963407     IErMin= 9 ErrMin= 1.51D-05
 ErrMax= 1.51D-05 EMaxC= 1.00D-01 BMatC= 1.55D-07 BMatP= 1.06D-06
 IDIUse=1 WtCom= 1.00D+00 WtEn= 0.00D+00
 Coeff-Com:  0.687D-04-0.603D-03 0.296D-03 0.178D-02 0.150D-01 0.370D-01
 Coeff-Com:  0.122D+00 0.371D+00 0.453D+00
 Coeff:      0.687D-04-0.603D-03 0.296D-03 0.178D-02 0.150D-01 0.370D-01
 Coeff:      0.122D+00 0.371D+00 0.453D+00
 Gap=     0.186 Goal=   None    Shift=    0.000
 RMSDP=3.59D-06 MaxDP=4.63D-04 DE=-8.71D-07 OVMax= 6.26D-05

 Cycle  10  Pass 1  IDiag  1:
 RMSU=  2.57D-06    CP:  9.94D-01  1.20D-01  6.83D-01  7.44D-01  7.63D-01
                    CP:  7.00D-01  7.60D-01  7.57D-01  9.86D-01
 E= -890.371281071378     Delta-E=       -0.000000107971 Rises=F Damp=F
 DIIS: error= 7.39D-06 at cycle  10 NSaved=  10.
 NSaved=10 IEnMin=10 EnMin= -890.371281071378     IErMin=10 ErrMin= 7.39D-06
 ErrMax= 7.39D-06 EMaxC= 1.00D-01 BMatC= 1.77D-08 BMatP= 1.55D-07
 IDIUse=1 WtCom= 1.00D+00 WtEn= 0.00D+00
 Coeff-Com:  0.439D-04-0.215D-03-0.108D-03-0.571D-04 0.270D-02 0.677D-02
 Coeff-Com:  0.355D-01 0.125D+00 0.276D+00 0.555D+00
 Coeff:      0.439D-04-0.215D-03-0.108D-03-0.571D-04 0.270D-02 0.677D-02
 Coeff:      0.355D-01 0.125D+00 0.276D+00 0.555D+00
 Gap=     0.186 Goal=   None    Shift=    0.000
 RMSDP=1.48D-06 MaxDP=1.92D-04 DE=-1.08D-07 OVMax= 2.34D-05

 Cycle  11  Pass 1  IDiag  1:
 RMSU=  1.05D-06    CP:  9.94D-01  1.20D-01  6.83D-01  7.44D-01  7.63D-01
                    CP:  6.99D-01  7.62D-01  7.69D-01  9.80D-01  8.66D-01
 E= -890.371281083794     Delta-E=       -0.000000012416 Rises=F Damp=F
 DIIS: error= 1.53D-06 at cycle  11 NSaved=  11.
 NSaved=11 IEnMin=11 EnMin= -890.371281083794     IErMin=11 ErrMin= 1.53D-06
 ErrMax= 1.53D-06 EMaxC= 1.00D-01 BMatC= 1.72D-09 BMatP= 1.77D-08
 IDIUse=1 WtCom= 1.00D+00 WtEn= 0.00D+00
 Coeff-Com:  0.157D-04-0.602D-04-0.721D-04-0.186D-03 0.114D-03 0.137D-03
 Coeff-Com:  0.741D-02 0.289D-01 0.101D+00 0.309D+00 0.554D+00
 Coeff:      0.157D-04-0.602D-04-0.721D-04-0.186D-03 0.114D-03 0.137D-03
 Coeff:      0.741D-02 0.289D-01 0.101D+00 0.309D+00 0.554D+00
 Gap=     0.186 Goal=   None    Shift=    0.000
 RMSDP=5.79D-07 MaxDP=1.18D-04 DE=-1.24D-08 OVMax= 7.59D-06

 Cycle  12  Pass 1  IDiag  1:
 RMSU=  3.47D-07    CP:  9.94D-01  1.20D-01  6.83D-01  7.44D-01  7.63D-01
                    CP:  7.00D-01  7.63D-01  7.68D-01  9.86D-01  8.31D-01
                    CP:  9.15D-01
 E= -890.371281085269     Delta-E=       -0.000000001475 Rises=F Damp=F
 DIIS: error= 2.17D-07 at cycle  12 NSaved=  12.
 NSaved=12 IEnMin=12 EnMin= -890.371281085269     IErMin=12 ErrMin= 2.17D-07
 ErrMax= 2.17D-07 EMaxC= 1.00D-01 BMatC= 8.42D-11 BMatP= 1.72D-09
 IDIUse=1 WtCom= 1.00D+00 WtEn= 0.00D+00
 Coeff-Com:  0.104D-05-0.242D-05-0.161D-04-0.666D-04-0.202D-03-0.580D-03
 Coeff-Com: -0.426D-03-0.949D-03 0.111D-01 0.717D-01 0.233D+00 0.686D+00
 Coeff:      0.104D-05-0.242D-05-0.161D-04-0.666D-04-0.202D-03-0.580D-03
 Coeff:     -0.426D-03-0.949D-03 0.111D-01 0.717D-01 0.233D+00 0.686D+00
 Gap=     0.186 Goal=   None    Shift=    0.000
 RMSDP=2.32D-07 MaxDP=2.18D-05 DE=-1.48D-09 OVMax= 1.70D-06

 Cycle  13  Pass 1  IDiag  1:
 RMSU=  8.36D-08    CP:  9.94D-01  1.20D-01  6.83D-01  7.44D-01  7.63D-01
                    CP:  7.00D-01  7.63D-01  7.69D-01  9.93D-01  8.56D-01
                    CP:  8.63D-01  7.68D-01
 E= -890.371281085351     Delta-E=       -0.000000000082 Rises=F Damp=F
 DIIS: error= 5.91D-08 at cycle  13 NSaved=  13.
 NSaved=13 IEnMin=13 EnMin= -890.371281085351     IErMin=13 ErrMin= 5.91D-08
 ErrMax= 5.91D-08 EMaxC= 1.00D-01 BMatC= 5.87D-12 BMatP= 8.42D-11
 IDIUse=1 WtCom= 1.00D+00 WtEn= 0.00D+00
 Coeff-Com: -0.573D-06 0.177D-05-0.348D-05-0.180D-04-0.859D-04-0.236D-03
 Coeff-Com: -0.505D-03-0.182D-02-0.101D-02 0.133D-01 0.670D-01 0.289D+00
 Coeff-Com:  0.634D+00
 Coeff:     -0.573D-06 0.177D-05-0.348D-05-0.180D-04-0.859D-04-0.236D-03
 Coeff:     -0.505D-03-0.182D-02-0.101D-02 0.133D-01 0.670D-01 0.289D+00
 Coeff:      0.634D+00
 Gap=     0.186 Goal=   None    Shift=    0.000
 RMSDP=3.85D-08 MaxDP=4.56D-06 DE=-8.19D-11 OVMax= 5.27D-07

 Cycle  14  Pass 1  IDiag  1:
 RMSU=  2.49D-08    CP:  9.94D-01  1.20D-01  6.83D-01  7.44D-01  7.63D-01
                    CP:  7.00D-01  7.63D-01  7.69D-01  9.93D-01  8.56D-01
                    CP:  8.80D-01  7.90D-01  8.67D-01
 E= -890.371281085356     Delta-E=       -0.000000000005 Rises=F Damp=F
 DIIS: error= 1.98D-08 at cycle  14 NSaved=  14.
 NSaved=14 IEnMin=14 EnMin= -890.371281085356     IErMin=14 ErrMin= 1.98D-08
 ErrMax= 1.98D-08 EMaxC= 1.00D-01 BMatC= 6.25D-13 BMatP= 5.87D-12
 IDIUse=1 WtCom= 1.00D+00 WtEn= 0.00D+00
 Coeff-Com: -0.305D-06 0.102D-05-0.334D-06-0.232D-05-0.201D-04-0.502D-04
 Coeff-Com: -0.150D-03-0.624D-03-0.152D-02-0.149D-02 0.387D-02 0.492D-01
 Coeff-Com:  0.273D+00 0.677D+00
 Coeff:     -0.305D-06 0.102D-05-0.334D-06-0.232D-05-0.201D-04-0.502D-04
 Coeff:     -0.150D-03-0.624D-03-0.152D-02-0.149D-02 0.387D-02 0.492D-01
 Coeff:      0.273D+00 0.677D+00
 Gap=     0.186 Goal=   None    Shift=    0.000
 RMSDP=1.68D-08 MaxDP=2.89D-06 DE=-4.55D-12 OVMax= 2.61D-07

 Cycle  15  Pass 1  IDiag  1:
 RMSU=  7.21D-09    CP:  9.94D-01  1.20D-01  6.83D-01  7.44D-01  7.63D-01
                    CP:  7.00D-01  7.64D-01  7.69D-01  9.93D-01  8.56D-01
                    CP:  8.81D-01  7.99D-01  9.29D-01  9.09D-01
 E= -890.371281085374     Delta-E=       -0.000000000018 Rises=F Damp=F
 DIIS: error= 6.34D-09 at cycle  15 NSaved=  15.
 NSaved=15 IEnMin=15 EnMin= -890.371281085374     IErMin=15 ErrMin= 6.34D-09
 ErrMax= 6.34D-09 EMaxC= 1.00D-01 BMatC= 4.20D-14 BMatP= 6.25D-13
 IDIUse=1 WtCom= 1.00D+00 WtEn= 0.00D+00
 Coeff-Com: -0.467D-07 0.183D-06 0.158D-06 0.434D-06-0.428D-06-0.847D-06
 Coeff-Com: -0.794D-05-0.818D-04-0.497D-03-0.169D-02-0.446D-02-0.612D-02
 Coeff-Com:  0.463D-01 0.236D+00 0.731D+00
 Coeff:     -0.467D-07 0.183D-06 0.158D-06 0.434D-06-0.428D-06-0.847D-06
 Coeff:     -0.794D-05-0.818D-04-0.497D-03-0.169D-02-0.446D-02-0.612D-02
 Coeff:      0.463D-01 0.236D+00 0.731D+00
 Gap=     0.186 Goal=   None    Shift=    0.000
 RMSDP=8.45D-09 MaxDP=5.79D-07 DE=-1.77D-11 OVMax= 1.09D-07

 SCF Done:  E(RB+HF-LYP) =  -890.371281085     A.U. after   15 cycles
             Convg  =    0.8448D-08             -V/T =  2.0048
             S**2   =   0.0000
 KE= 8.861038706766D+02 PE=-5.638932440587D+03 EE= 2.077304345709D+03
 Leave Link  502 at Thu Sep 18 10:26:55 2014, MaxMem= 1769472000 cpu:    8959.3
 (Enter /usr/g03/l801.exe)
 Range of M.O.s used for correlation:     1   616
 NBasis=   618 NAE=    78 NBE=    78 NFC=     0 NFV=     0
 NROrb=    616 NOA=    78 NOB=    78 NVA=   538 NVB=   538

 **** Warning!!: The largest alpha MO coefficient is  0.13136743D+03

 Leave Link  801 at Thu Sep 18 10:27:05 2014, MaxMem= 1769472000 cpu:       0.1
 (Enter /usr/g03/l1002.exe)
 Minotr:  Closed-shell wavefunction.
 DoAtom=TTTTTTTTTTTTTTTTTTTTTTTTTTTTTTTTTTTTTTTTTTTTTTT
          Direct CPHF calculation.
          Solving linear equations simultaneously.
          Differentiating once with respect to magnetic field using GIAOs.
          Differentiating once with respect to nuclear magnetic moments.
          Differentiating once with respect to Fermi-contact and electric field gradient.
          Electric field/nuclear overlap derivatives assumed to be zero.
          Requested convergence is 1.0D-08 RMS, and 1.0D-07 maximum.
          Secondary convergence is 1.0D-12 RMS, and 1.0D-12 maximum.
          NewPWx=T KeepS1=F KeepF1=F KeepIn=T MapXYZ=F.
          MDV=    1769471575 using IRadAn=       2.
 Generate precomputed XC quadrature information.
 Symmetry not used in FoFDir.
 MinBra= 0 MaxBra= 2 Meth= 1.
 IRaf=       0 NMat=   1 IRICut=       1 DoRegI=T DoRafI=F ISym2E= 0 JSym2E=0.
          There are 144 degrees of freedom in the 1st order CPHF.
   144 vectors were produced by pass  0.
 AX will form 144 AO Fock derivatives at one time.
   144 vectors were produced by pass  1.
   144 vectors were produced by pass  2.
   144 vectors were produced by pass  3.
   144 vectors were produced by pass  4.
    69 vectors were produced by pass  5.
     9 vectors were produced by pass  6.
 Inv2:  IOpt= 1 Iter= 1 AM= 5.29D-15 Conv= 1.00D-12.
 Inverted reduced A of dimension  798 with in-core refinement.
 Calculating GIAO nuclear magnetic shielding tensors.
 SCF GIAO Magnetic shielding tensor (ppm):
  1  C    Isotropic =   -19.4880   Anisotropy =   183.8712
   XX=   -31.0028   YX=    16.1448   ZX=    58.8159
   XY=    22.2418   YY=   -98.6128   ZY=    11.8691
   XZ=    66.8821   YZ=    14.6066   ZZ=    71.1517
   Eigenvalues:  -103.7679   -57.7889   103.0929
  2  C    Isotropic =    51.3766   Anisotropy =    95.5380
   XX=    74.6358   YX=    -9.0359   ZX=    14.7048
   XY=    -4.1046   YY=   -30.8941   ZY=     4.3199
   XZ=    12.8021   YZ=     1.2523   ZZ=   110.3882
   Eigenvalues:   -31.3958    70.4570   115.0686
  3  C    Isotropic =     4.0432   Anisotropy =   212.4225
   XX=    -6.0662   YX=    42.8885   ZX=    63.8162
   XY=    13.3781   YY=  -103.7740   ZY=   -19.9023
   XZ=    54.9881   YZ=   -22.6623   ZZ=   121.9698
   Eigenvalues:  -117.2483   -16.2803   145.6582
  4  C    Isotropic =   137.5137   Anisotropy =    16.8772
   XX=   136.0206   YX=     5.0442   ZX=    10.3066
   XY=     0.0193   YY=   133.5655   ZY=    -2.0600
   XZ=     6.7626   YZ=     1.0307   ZZ=   142.9550
   Eigenvalues:   129.0105   134.7654   148.7652
  5  C    Isotropic =   141.7942   Anisotropy =    33.2145
   XX=   140.3775   YX=   -12.5706   ZX=   -11.3236
   XY=   -11.6623   YY=   141.4276   ZY=    12.1974
   XZ=    -4.3002   YZ=    13.7825   ZZ=   143.5774
   Eigenvalues:   127.3316   134.1138   163.9372
  6  C    Isotropic =   145.7927   Anisotropy =    34.8460
   XX=   138.8779   YX=    12.0501   ZX=     0.4572
   XY=    10.2755   YY=   164.7789   ZY=     1.9642
   XZ=    -4.8310   YZ=    -4.2922   ZZ=   133.7213
   Eigenvalues:   132.4443   135.9104   169.0233
  7  H    Isotropic =    26.1757   Anisotropy =     6.3759
   XX=    29.6458   YX=    -0.6613   ZX=    -2.0510
   XY=    -0.1051   YY=    23.7002   ZY=     0.1382
   XZ=    -1.9307   YZ=    -0.0064   ZZ=    25.1810
   Eigenvalues:    23.6711    24.4297    30.4263
  8  H    Isotropic =    29.9461   Anisotropy =     5.6930
   XX=    32.1088   YX=    -0.8367   ZX=    -1.2808
   XY=     0.2092   YY=    33.5145   ZY=     0.4544
   XZ=    -0.8991   YZ=     1.5487   ZZ=    24.2151
   Eigenvalues:    23.9724    32.1245    33.7415
  9  H    Isotropic =    30.2594   Anisotropy =     6.5318
   XX=    31.7637   YX=    -1.3982   ZX=    -1.2890
   XY=    -1.2785   YY=    26.1126   ZY=     2.7917
   XZ=    -0.1175   YZ=     3.5083   ZZ=    32.9020
   Eigenvalues:    24.7343    31.4300    34.6139
 10  H    Isotropic =    29.5040   Anisotropy =     7.0047
   XX=    32.5496   YX=    -2.7981   ZX=     2.1467
   XY=    -2.0939   YY=    26.4239   ZY=    -0.8853
   XZ=     0.8945   YZ=    -1.7627   ZZ=    29.5385
   Eigenvalues:    25.4157    28.9225    34.1738
 11  H    Isotropic =    29.6756   Anisotropy =     8.5670
   XX=    32.5186   YX=    -1.1765   ZX=    -2.3730
   XY=    -3.8143   YY=    29.5116   ZY=     2.9136
   XZ=    -2.7526   YZ=     2.1345   ZZ=    26.9966
   Eigenvalues:    25.2886    28.3513    35.3869
 12  C    Isotropic =   163.9363   Anisotropy =    31.3705
   XX=   149.0933   YX=     5.1442   ZX=     4.9567
   XY=     2.2908   YY=   161.4274   ZY=    -7.8818
   XZ=    -2.0156   YZ=   -10.3857   ZZ=   181.2882
   Eigenvalues:   147.5447   159.4142   184.8499
 13  H    Isotropic =    30.6288   Anisotropy =     5.9273
   XX=    28.7030   YX=    -2.1356   ZX=     0.7725
   XY=    -2.3422   YY=    29.3638   ZY=     1.2184
   XZ=    -1.3853   YZ=     2.1539   ZZ=    33.8194
   Eigenvalues:    26.6572    30.6488    34.5803
 14  H    Isotropic =    30.8883   Anisotropy =     7.6270
   XX=    29.6298   YX=     1.5769   ZX=     1.0279
   XY=     1.7489   YY=    32.2540   ZY=    -3.5337
   XZ=     0.1120   YZ=    -4.9815   ZZ=    30.7812
   Eigenvalues:    26.4600    30.2319    35.9730
 15  H    Isotropic =    30.6467   Anisotropy =     9.0593
   XX=    33.3095   YX=    -1.0698   ZX=     3.6718
   XY=    -0.8111   YY=    26.1205   ZY=     0.1228
   XZ=     3.6704   YZ=    -0.8401   ZZ=    32.5101
   Eigenvalues:    25.9968    29.2570    36.6863
 16  C    Isotropic =   122.5136   Anisotropy =    20.4959
   XX=   126.6059   YX=   -20.9433   ZX=     3.5042
   XY=    -7.7701   YY=   113.3071   ZY=     1.8989
   XZ=     3.8587   YZ=     2.9700   ZZ=   127.6276
   Eigenvalues:   103.4588   127.9044   136.1775
 17  H    Isotropic =    31.0811   Anisotropy =     2.7441
   XX=    32.5964   YX=    -0.1639   ZX=    -0.6815
   XY=    -0.9479   YY=    29.1896   ZY=     0.1279
   XZ=    -0.4203   YZ=     0.2316   ZZ=    31.4573
   Eigenvalues:    29.0976    31.2353    32.9105
 18  C    Isotropic =   145.1355   Anisotropy =    19.0996
   XX=   152.0168   YX=    -2.0719   ZX=     0.6729
   XY=   -10.7618   YY=   150.7013   ZY=     3.6899
   XZ=    -2.4781   YZ=    -2.0515   ZZ=   132.6884
   Eigenvalues:   132.6294   144.9086   157.8685
 19  C    Isotropic =   142.1247   Anisotropy =     7.0585
   XX=   145.7890   YX=    -5.8973   ZX=     1.7223
   XY=     5.3138   YY=   143.0280   ZY=     0.5972
   XZ=     4.3298   YZ=    -1.5749   ZZ=   137.5572
   Eigenvalues:   136.5429   143.0009   146.8304
 20  H    Isotropic =    30.1259   Anisotropy =     2.1313
   XX=    31.3994   YX=     0.6816   ZX=    -0.4356
   XY=     0.5452   YY=    28.2295   ZY=     0.1349
   XZ=     0.0889   YZ=    -0.0370   ZZ=    30.7487
   Eigenvalues:    28.1125    30.7184    31.5467
 21  C    Isotropic =   146.7618   Anisotropy =    19.4289
   XX=   148.5972   YX=    10.4945   ZX=     1.9935
   XY=    10.3191   YY=   149.7710   ZY=    -3.2901
   XZ=     0.9655   YZ=    -3.2477   ZZ=   141.9173
   Eigenvalues:   136.6392   143.9318   159.7144
 22  H    Isotropic =    29.9667   Anisotropy =     7.8483
   XX=    31.7043   YX=    -1.3163   ZX=     0.0062
   XY=    -1.7473   YY=    34.3527   ZY=     1.6042
   XZ=     0.5933   YZ=     1.4729   ZZ=    23.8432
   Eigenvalues:    23.5892    31.1120    35.1989
 23  H    Isotropic =    30.7698   Anisotropy =     6.3367
   XX=    30.7218   YX=     1.0073   ZX=     0.6096
   XY=     1.0013   YY=    29.9087   ZY=    -4.0713
   XZ=     0.5324   YZ=    -4.1237   ZZ=    31.6789
   Eigenvalues:    26.3071    31.0080    34.9943
 24  C    Isotropic =   158.1137   Anisotropy =    15.3704
   XX=   162.1538   YX=     6.4670   ZX=     3.4387
   XY=     4.2426   YY=   163.7367   ZY=    -2.8031
   XZ=     1.1722   YZ=    -0.6111   ZZ=   148.4506
   Eigenvalues:   147.6226   158.3579   168.3606
 25  H    Isotropic =    30.3288   Anisotropy =     8.4166
   XX=    33.5356   YX=    -1.5432   ZX=    -0.5224
   XY=    -2.1637   YY=    33.2518   ZY=     3.4468
   XZ=    -0.2128   YZ=     3.6578   ZZ=    24.1989
   Eigenvalues:    22.9650    32.0816    35.9398
 26  H    Isotropic =    30.4638   Anisotropy =     4.7852
   XX=    32.3146   YX=     0.4687   ZX=     1.4645
   XY=     0.4422   YY=    28.8091   ZY=    -4.0555
   XZ=     1.1693   YZ=    -3.1039   ZZ=    30.2678
   Eigenvalues:    25.6713    32.0662    33.6540
 27  C    Isotropic =   126.8752   Anisotropy =    21.7669
   XX=   139.9712   YX=     8.6394   ZX=     9.9785
   XY=    -4.2589   YY=   125.6354   ZY=     1.7806
   XZ=    -0.0811   YZ=     4.0703   ZZ=   115.0190
   Eigenvalues:   113.5599   125.6793   141.3864
 28  H    Isotropic =    30.6805   Anisotropy =     2.5677
   XX=    30.9549   YX=    -1.2916   ZX=     1.1722
   XY=    -1.8478   YY=    29.4009   ZY=    -0.8007
   XZ=    -1.4016   YZ=    -1.3375   ZZ=    31.6856
   Eigenvalues:    28.1561    31.4931    32.3923
 29  C    Isotropic =   146.7360   Anisotropy =    18.4111
   XX=   146.3346   YX=    -8.0119   ZX=    -9.2336
   XY=    -3.0076   YY=   149.1808   ZY=     9.3948
   XZ=    -5.6197   YZ=     1.3641   ZZ=   144.6927
   Eigenvalues:   138.0265   143.1715   159.0101
 30  H    Isotropic =    30.6546   Anisotropy =     7.7806
   XX=    29.6950   YX=    -0.1470   ZX=     1.3218
   XY=     0.0811   YY=    28.4000   ZY=     3.6638
   XZ=     1.0237   YZ=     3.5643   ZZ=    33.8688
   Eigenvalues:    26.5035    29.6187    35.8417
 31  H    Isotropic =    30.0172   Anisotropy =     9.4003
   XX=    30.4928   YX=     2.7886   ZX=     0.3975
   XY=     3.7924   YY=    34.2718   ZY=     1.0700
   XZ=     0.5342   YZ=     0.9017   ZZ=    25.2869
   Eigenvalues:    25.1772    28.5903    36.2841
 32  C    Isotropic =   129.6410   Anisotropy =    22.1687
   XX=   140.8877   YX=   -12.4911   ZX=    -3.6535
   XY=    -3.8658   YY=   120.9073   ZY=    -2.2457
   XZ=     7.3685   YZ=    -6.4368   ZZ=   127.1278
   Eigenvalues:   116.7826   127.7201   144.4201
 33  C    Isotropic =   168.2401   Anisotropy =    24.4595
   XX=   160.6537   YX=     8.2618   ZX=    -7.4948
   XY=     9.5960   YY=   163.9784   ZY=    -5.3797
   XZ=    -5.9883   YZ=    -2.8543   ZZ=   180.0884
   Eigenvalues:   152.9630   167.2110   184.5464
 34  H    Isotropic =    31.0223   Anisotropy =     8.5682
   XX=    29.9727   YX=    -2.3466   ZX=    -5.2853
   XY=    -2.1793   YY=    30.6466   ZY=    -0.2485
   XZ=    -4.2377   YZ=     1.5235   ZZ=    32.4477
   Eigenvalues:    25.8500    30.4825    36.7344
 35  H    Isotropic =    31.3487   Anisotropy =    10.9008
   XX=    31.2300   YX=     4.9620   ZX=    -2.9859
   XY=     4.2235   YY=    32.8482   ZY=    -2.3800
   XZ=    -2.7895   YZ=    -3.3871   ZZ=    29.9680
   Eigenvalues:    27.2442    28.1860    38.6159
 36  H    Isotropic =    30.7334   Anisotropy =     5.5388
   XX=    32.6764   YX=    -0.0516   ZX=     0.4385
   XY=     0.0059   YY=    26.3655   ZY=    -1.5925
   XZ=     2.0842   YZ=    -1.7730   ZZ=    33.1583
   Eigenvalues:    25.9607    31.8136    34.4259
 37  C    Isotropic =   157.4718   Anisotropy =    24.5588
   XX=   169.2193   YX=   -10.1871   ZX=     5.0113
   XY=    -6.3156   YY=   154.7979   ZY=     3.9093
   XZ=     7.9234   YZ=     2.3207   ZZ=   148.3981
   Eigenvalues:   143.6012   154.9699   173.8443
 38  H    Isotropic =    30.0613   Anisotropy =     8.2043
   XX=    30.1334   YX=    -0.3322   ZX=     0.7408
   XY=     0.2688   YY=    34.2668   ZY=    -3.0841
   XZ=     1.0138   YZ=    -3.8735   ZZ=    25.7837
   Eigenvalues:    24.4229    30.2302    35.5308
 39  H    Isotropic =    30.3986   Anisotropy =     6.7908
   XX=    29.5004   YX=    -2.0780   ZX=    -1.6658
   XY=    -1.7848   YY=    29.6949   ZY=     2.9398
   XZ=    -0.8589   YZ=     3.0769   ZZ=    32.0006
   Eigenvalues:    27.1672    29.1028    34.9258
 40  C    Isotropic =   143.0269   Anisotropy =    34.5883
   XX=   138.6851   YX=    -1.3286   ZX=    10.3197
   XY=    -0.3095   YY=   165.5045   ZY=     4.0526
   XZ=     2.4304   YZ=     5.7329   ZZ=   124.8912
   Eigenvalues:   121.8555   141.1395   166.0858
 41  H    Isotropic =    29.4809   Anisotropy =     8.8748
   XX=    34.7263   YX=    -1.7405   ZX=    -0.8117
   XY=    -2.2364   YY=    26.9378   ZY=     0.8111
   XZ=    -1.3103   YZ=     1.3470   ZZ=    26.7786
   Eigenvalues:    25.7278    27.3175    35.3975
 42  H    Isotropic =    29.8636   Anisotropy =     8.9154
   XX=    29.9785   YX=     0.2625   ZX=     4.2124
   XY=    -0.9716   YY=    27.8829   ZY=    -2.3122
   XZ=     4.5065   YZ=    -2.2402   ZZ=    31.7295
   Eigenvalues:    25.6567    28.1269    35.8072
 43  O    Isotropic =  -306.6568   Anisotropy =   951.2077
   XX=  -665.2858   YX=   -28.9166   ZX=   420.5619
   XY=    -4.9667   YY=  -366.9270   ZY=    83.7308
   XZ=   482.3996   YZ=    97.6331   ZZ=   112.2424
   Eigenvalues:  -877.9077  -369.5444   327.4816
 44  O    Isotropic =  -287.4252   Anisotropy =   967.9925
   XX=  -424.4532   YX=  -164.7082   ZX=  -396.6344
   XY=  -159.8780   YY=  -582.1394   ZY=  -149.4954
   XZ=  -408.7829   YZ=  -168.6716   ZZ=   144.3172
   Eigenvalues:  -828.0381  -392.1406   357.9032
 45  C    Isotropic =   -45.2160   Anisotropy =   162.0511
   XX=   -58.1006   YX=    24.6459   ZX=   -58.3012
   XY=    19.2708   YY=  -113.7188   ZY=    -6.0945
   XZ=   -52.6971   YZ=    -2.2093   ZZ=    36.1715
   Eigenvalues:  -123.0518   -75.4142    62.8181
 46  H    Isotropic =    29.6272   Anisotropy =     9.2027
   XX=    31.6406   YX=     3.3477   ZX=    -0.6349
   XY=     3.7737   YY=    32.6001   ZY=    -0.6683
   XZ=    -0.3002   YZ=    -0.4784   ZZ=    24.6410
   Eigenvalues:    24.5916    28.5277    35.7624
 47  H    Isotropic =    29.2992   Anisotropy =     6.3646
   XX=    27.3675   YX=     1.0337   ZX=     2.1846
   XY=     0.2196   YY=    29.4667   ZY=     2.9646
   XZ=     0.9063   YZ=     2.5159   ZZ=    31.0634
   Eigenvalues:    26.7049    27.6504    33.5423
          There are 329 degrees of freedom in the 1st order CPHF.
   282 vectors were produced by pass  0.
   282 vectors were produced by pass  1.
   282 vectors were produced by pass  2.
   282 vectors were produced by pass  3.
   282 vectors were produced by pass  4.
   275 vectors were produced by pass  5.
   176 vectors were produced by pass  6.
    20 vectors were produced by pass  7.
     5 vectors were produced by pass  8.
 Inv2:  IOpt= 1 Iter= 1 AM= 1.46D-14 Conv= 1.00D-12.
 Inverted reduced A of dimension 1886 with in-core refinement.
 There are a total of      387612 grid points.
 ElSum from density=      311.9996795207
 Fermi Contact (FC) contribution to K (Hz):
                1             2             3             4             5
      1  0.000000D+00
      2  0.284074D+02  0.000000D+00
      3  0.625218D+00  0.393506D+02  0.000000D+00
      4  0.166984D+01  0.382413D+00  0.190178D+02  0.000000D+00
      5 -0.420378D+00  0.691882D+00 -0.515895D-02  0.170171D+02  0.000000D+00
      6  0.206587D+02  0.705963D+01  0.703943D-01 -0.835019D+00  0.156429D+02
      7  0.134432D+00  0.191362D+02  0.251383D+00  0.834716D+00  0.165225D-01
      8  0.113493D+01 -0.658541D-01  0.919847D+00 -0.415876D+00  0.154976D+02
      9  0.249029D+00 -0.245734D-01  0.896237D-01 -0.378693D+00  0.151498D+02
     10 -0.646240D+00 -0.417276D-01 -0.362872D-01  0.216702D+00 -0.560640D+00
     11 -0.737688D+00  0.270156D+00 -0.216610D-02  0.936667D+00 -0.162820D+00
     12 -0.482987D+00  0.775045D+00 -0.382609D+00  0.164457D+02  0.649550D+00
     13  0.676311D-02 -0.165111D-01  0.191060D+00 -0.349904D+00  0.110473D+01
     14 -0.256473D-01  0.715978D-01  0.909715D+00 -0.350873D+00  0.337081D+00
     15  0.108348D-01 -0.163021D-01  0.264328D+00 -0.335172D+00  0.185770D+00
     16 -0.261951D+00  0.729318D+00 -0.584561D+00  0.164015D+02  0.269593D+00
     17  0.163860D-01 -0.208435D-01  0.143591D+00 -0.447532D+00  0.383488D+00
     18  0.232973D+01  0.136606D+01  0.202758D+02  0.753350D+00  0.784793D+00
     19  0.883277D-02 -0.107639D+00  0.105305D+01 -0.461619D+00  0.107725D+01
     20 -0.362087D-03  0.141195D-01 -0.313592D-01  0.161779D+00 -0.134197D-01
     21 -0.134068D+00  0.114275D+01 -0.108313D+01  0.533070D+00 -0.586842D-01
     22  0.357068D-01  0.820918D-02  0.902148D+00 -0.616413D-01  0.366083D-01
     23  0.126252D-01 -0.348690D-01  0.163395D+00 -0.248964D-01  0.173620D-01
     24  0.793091D-01  0.129434D+00  0.956359D+00 -0.158208D+00  0.650726D+00
     25  0.771417D-02 -0.434030D-03 -0.297278D-01  0.144293D+00  0.720012D-01
     26 -0.248881D-02  0.262166D-02 -0.288574D-01  0.250818D+00 -0.253345D-01
     27 -0.226783D-01  0.843939D-01 -0.193237D+00  0.139337D+01  0.119627D-01
     28  0.244822D-03 -0.901874D-03  0.874101D-02 -0.806056D-02 -0.349402D-03
     29  0.121528D-01  0.642726D-01  0.843683D-01  0.170635D+01  0.151752D-01
     30 -0.431515D-03 -0.102942D-02  0.384249D-03 -0.341702D-01  0.507119D-02
     31 -0.224791D-02  0.121358D-01  0.380362D-01  0.696814D-01 -0.251765D-02
     32 -0.668061D-03 -0.518400D-02  0.262584D-01 -0.143931D+00  0.658639D-01
     33 -0.767957D-04 -0.560776D-03 -0.246873D-02  0.259313D-02 -0.592275D-02
     34 -0.137458D-05 -0.306666D-04 -0.930873D-04 -0.914564D-03 -0.228638D-03
     35  0.508970D-04  0.107089D-03 -0.326814D-03 -0.149973D-02  0.191015D-04
     36 -0.719053D-05  0.159599D-03 -0.149108D-03  0.326607D-03  0.159823D-04
     37  0.853839D-02 -0.953076D-04  0.443158D-01  0.256257D+00  0.585267D-01
     38  0.249139D-03  0.233848D-03  0.526563D-02 -0.408579D-02 -0.897027D-03
     39  0.242439D-05 -0.747555D-04 -0.410838D-04 -0.615623D-02  0.133371D-03
     40 -0.115200D-03 -0.202527D-02  0.986424D-02  0.284028D-01  0.283317D-01
     41 -0.117088D-03  0.266880D-04 -0.513585D-04  0.107983D-01  0.185737D-02
     42 -0.286716D-04  0.136768D-04 -0.277661D-03 -0.163317D-02  0.179494D-02
     43 -0.161232D+02  0.285539D+01  0.128429D+01 -0.236643D+00  0.671519D+00
     44  0.479937D-03 -0.135792D-03  0.183158D-02 -0.913370D-03 -0.472306D-03
     45 -0.206765D-02  0.112861D-01 -0.181719D-01  0.179071D+00 -0.680472D-02
     46  0.242791D-01  0.754945D+00 -0.372694D+00  0.589616D+00  0.400378D-01
     47 -0.182177D+00  0.561405D+00 -0.825578D+00  0.148910D+00 -0.318651D-01
                6             7             8             9            10
      6  0.000000D+00
      7  0.385099D+00  0.000000D+00
      8 -0.397518D+00 -0.134994D-02  0.000000D+00
      9 -0.386950D+00  0.266105D-02 -0.400875D+00  0.000000D+00
     10  0.148982D+02 -0.101211D-01  0.152901D+00  0.436753D+00  0.000000D+00
     11  0.161478D+02  0.240924D-01  0.765774D-01  0.134394D+00 -0.506874D+00
     12  0.330661D+00 -0.135773D+00  0.447563D+00  0.780586D+00 -0.689018D-02
     13 -0.228746D-02  0.387743D-02  0.667475D-02  0.714680D-01 -0.349275D-02
     14 -0.181577D-01  0.212712D-02 -0.487713D-02  0.501867D-02 -0.299701D-02
     15  0.517962D-01  0.268005D-02 -0.745082D-02 -0.877688D-02 -0.781729D-02
     16  0.131450D+01 -0.341388D-01  0.467445D-01  0.515474D+00 -0.355983D-02
     17 -0.533122D-02  0.264204D-02 -0.647336D-02 -0.841801D-02  0.150482D-02
     18 -0.604230D-01  0.883517D+00  0.163337D+00 -0.207802D-01  0.363279D-02
     19  0.265457D+00  0.113964D-01 -0.246182D-01  0.221412D-01 -0.600607D-02
     20 -0.455652D-02 -0.360512D-03  0.101272D-02  0.294894D-03  0.139423D-02
     21 -0.306335D-01 -0.912251D-01  0.149752D-01  0.120908D-01 -0.330265D-02
     22 -0.383977D-02  0.258948D-02 -0.128438D-02 -0.750137D-03  0.414233D-03
     23  0.504169D-03  0.447373D-02 -0.221424D-03 -0.203897D-03 -0.411688D-04
     24  0.378805D-01  0.309215D-01  0.856525D-01 -0.141468D-02 -0.291414D-02
     25  0.137440D-01 -0.928969D-03 -0.561780D-02 -0.133035D-03  0.169433D-03
     26  0.416768D-02 -0.479292D-03  0.275054D-03  0.172825D-02 -0.543256D-04
     27  0.847547D-01 -0.618041D-02  0.995139D-03  0.948218D-03 -0.197121D-02
     28 -0.835184D-03 -0.694079D-05 -0.915694D-04  0.864660D-04  0.148820D-04
     29 -0.183989D-01  0.431338D-02  0.711052D-02  0.918913D-03  0.386008D-03
     30  0.147680D-02 -0.490144D-04  0.129979D-03  0.702110D-04  0.160696D-04
     31 -0.149017D-04  0.821699D-03  0.421669D-03  0.159440D-03  0.171121D-05
     32  0.115910D-01  0.959684D-03  0.622137D-02  0.606682D-03 -0.249748D-03
     33 -0.103732D-02  0.199670D-04  0.593726D-03 -0.849465D-04 -0.144531D-04
     34 -0.697621D-04 -0.925541D-05 -0.158443D-04  0.330081D-04  0.660509D-05
     35 -0.445742D-04 -0.949182D-05  0.318776D-04  0.261282D-04 -0.373102D-05
     36 -0.513329D-04  0.000000D+00 -0.131707D-04  0.834425D-05 -0.112409D-05
     37  0.179044D-01  0.227633D-03 -0.171434D-02  0.254747D-02 -0.615151D-03
     38 -0.543578D-03  0.416679D-04  0.264772D-04 -0.427877D-04  0.195498D-04
     39 -0.245242D-03  0.850757D-05  0.140850D-04 -0.197682D-04  0.594467D-05
     40  0.112589D-01  0.708470D-04  0.732046D-03  0.927977D-03 -0.220534D-03
     41  0.129555D-02 -0.214886D-04 -0.336286D-04  0.537614D-04 -0.142945D-04
     42  0.248479D-03 -0.259581D-05  0.485238D-04  0.186410D-04 -0.709846D-05
     43  0.227571D+01  0.263899D+00  0.546487D-01 -0.222551D-01  0.260655D+00
     44 -0.149226D-03  0.283575D-03  0.313385D-04  0.161412D-04 -0.234479D-05
     45 -0.406960D-02 -0.913965D-03  0.506010D-03 -0.580946D-03  0.415540D-04
     46  0.264472D-01 -0.124266D-01  0.103552D-01 -0.879786D-03 -0.119606D-02
     47 -0.414410D-02 -0.701331D-01  0.179963D-02  0.440292D-02 -0.473020D-02
               11            12            13            14            15
     11  0.000000D+00
     12 -0.279609D-01  0.000000D+00
     13 -0.249199D-02  0.151088D+02  0.000000D+00
     14  0.350802D-03  0.152653D+02 -0.369733D+00  0.000000D+00
     15 -0.148013D-02  0.152621D+02 -0.404937D+00 -0.394789D+00  0.000000D+00
     16 -0.100977D-01 -0.287020D+00  0.235789D+00  0.160906D+00  0.911782D+00
     17  0.137219D-03  0.581919D+00 -0.880767D-02 -0.113286D-01  0.267295D-01
     18  0.110240D-01  0.265361D+00  0.303100D-01 -0.430233D-02 -0.126309D-01
     19  0.485779D-01  0.380058D+00  0.363952D-01 -0.121267D-01 -0.459535D-02
     20  0.321883D-03  0.519066D-01 -0.584813D-02  0.137013D-02 -0.177763D-02
     21  0.431032D-03 -0.231186D+00  0.897521D-02 -0.983068D-02  0.925146D-03
     22 -0.160798D-02 -0.168735D-02 -0.490521D-03 -0.149285D-02 -0.648057D-03
     23  0.143622D-03  0.454918D-01  0.105508D-02  0.652002D-03 -0.507447D-03
     24 -0.310638D-02  0.872670D+00 -0.220384D-01  0.669282D-01  0.633425D-01
     25 -0.343030D-03 -0.250493D-01  0.247151D-02  0.336084D-03  0.132200D-02
     26  0.209604D-03  0.533266D-01  0.578578D-04 -0.704685D-02 -0.155606D-02
     27  0.825248D-02 -0.652858D-01 -0.193042D-02  0.780281D-02  0.277505D-02
     28 -0.109377D-03  0.369966D-01  0.183690D-02 -0.533334D-03  0.507175D-02
     29 -0.564389D-04 -0.284244D-01  0.287895D-02  0.807862D-03 -0.730012D-02
     30  0.585505D-04  0.389932D-01 -0.268849D-03  0.290989D-02  0.602233D-02
     31 -0.110500D-03 -0.558276D-02  0.225929D-03  0.165274D-02  0.266415D-02
     32 -0.563012D-03  0.232206D-01  0.520300D-03 -0.136574D-03  0.234352D-02
     33  0.899012D-04  0.736656D-02  0.137916D-02  0.784656D-04  0.266879D-02
     34  0.000000D+00  0.238815D-03  0.475855D-04 -0.446714D-05  0.291522D-04
     35  0.509706D-05  0.114443D-04  0.000000D+00  0.277189D-04  0.154393D-04
     36 -0.844585D-05 -0.522202D-03  0.109257D-03  0.156611D-03 -0.162733D-04
     37  0.468062D-02 -0.119444D-01  0.220867D-02  0.224662D-03  0.642796D-02
     38 -0.815474D-04  0.487264D-03 -0.236184D-04 -0.271906D-04 -0.625193D-04
     39 -0.272963D-04  0.348619D-02 -0.454991D-05 -0.543411D-04  0.888303D-04
     40  0.508394D-03  0.149526D-02 -0.129477D-03  0.529176D-04 -0.456109D-03
     41  0.132939D-03 -0.504653D-03 -0.353316D-04  0.333035D-04 -0.130978D-03
     42 -0.303387D-04 -0.112954D-03  0.346961D-04 -0.800442D-05  0.123787D-04
     43  0.362449D+00  0.284704D+00 -0.480676D-02  0.173070D-01 -0.238244D-03
     44 -0.283954D-04  0.740073D-03  0.225847D-04  0.845001D-04  0.157859D-04
     45  0.718040D-03 -0.470075D-02  0.744627D-03 -0.458341D-04  0.725907D-03
     46 -0.628077D-03 -0.183878D-01  0.809112D-03 -0.534104D-02  0.328267D-02
     47  0.465433D-02 -0.536315D-01  0.240230D-02 -0.415980D-02  0.568582D-03
               16            17            18            19            20
     16  0.000000D+00
     17  0.150625D+02  0.000000D+00
     18  0.898609D+00 -0.261550D-01  0.000000D+00
     19  0.158287D+02 -0.458043D+00 -0.582789D+00  0.000000D+00
     20 -0.332661D+00  0.288503D+00  0.240859D+00  0.150628D+02  0.000000D+00
     21 -0.529682D+00  0.337185D+00  0.156493D+02  0.166371D+02 -0.274836D+00
     22  0.933542D+00 -0.574495D-02 -0.367073D+00 -0.362558D+00  0.106719D+00
     23  0.251180D+00 -0.759928D-02 -0.367899D+00 -0.423289D+00  0.323137D+00
     24  0.171305D+02 -0.468560D+00 -0.722114D-01 -0.328496D+00  0.153027D+00
     25 -0.392177D+00  0.121604D+00  0.681293D-02  0.911152D+00 -0.134233D-01
     26 -0.438198D+00  0.352703D+00  0.250313D-02  0.176317D+00 -0.794877D-02
     27 -0.331931D+00  0.288287D+00  0.196326D+01  0.182149D+02 -0.408662D+00
     28  0.339493D+00 -0.791996D-02 -0.269482D-01 -0.472588D+00  0.291357D+00
     29 -0.535742D+00  0.194723D+00 -0.620230D-02  0.238556D+00 -0.133413D-01
     30  0.165584D+00 -0.754431D-02 -0.279645D-03 -0.181625D-01  0.473942D-03
     31  0.939126D+00 -0.125340D-01 -0.342594D-02 -0.617111D-01  0.262877D-02
     32  0.458576D+00 -0.288341D-01  0.203219D+00 -0.309396D+00  0.204952D+00
     33 -0.607625D-01  0.374710D-01 -0.154979D-01  0.777721D+00  0.559002D-01
     34 -0.217278D-04 -0.320869D-03  0.229294D-03 -0.224435D-01  0.499294D-03
     35  0.327298D-02 -0.382617D-03  0.733972D-02  0.274528D-01 -0.491985D-03
     36  0.130519D-01  0.116829D-02  0.638893D-02  0.336681D-01 -0.320028D-02
     37  0.144858D+01 -0.251848D-01  0.381584D-01 -0.234476D+00  0.169079D+00
     38 -0.348240D-01  0.305972D-02  0.505470D-02  0.157180D-01 -0.353522D-02
     39 -0.280733D-01  0.481667D-02  0.342773D-02  0.304704D+00 -0.732227D-02
     40  0.125934D+00 -0.211679D-02 -0.136283D-01  0.122029D+01 -0.201111D-01
     41  0.126258D-01  0.563582D-03  0.293751D-03  0.124326D+00 -0.153421D-02
     42  0.129543D-01  0.125433D-03 -0.797226D-04 -0.354347D-01  0.767104D-02
     43  0.125149D+00 -0.352714D-02 -0.161210D+00 -0.126888D-01  0.548380D-03
     44  0.223825D-01 -0.613312D-03  0.215997D-01  0.862704D-01 -0.291329D-03
[...]
             25         26         27         28         29         30
     1  C    0.000488   0.000938   0.010754   0.000509  -0.022707   0.000123
     2  C   -0.001286  -0.000884  -0.135365  -0.007916   0.057346   0.000568
     3  C    0.009964  -0.007688   0.323401  -0.015976  -0.607436   0.002809
     4  C   -0.020067  -0.022038  -0.739709   0.003795  -0.083048   0.005055
     5  C    0.020846  -0.018082  -0.143726   0.008248   0.029498  -0.004556
     6  C    0.010567  -0.005372  -0.050846  -0.000096   0.029469  -0.000419
     7  H    0.000000   0.000000   0.000177   0.000000   0.000144   0.000000
     8  H    0.001494  -0.000033  -0.003653   0.000015   0.003474   0.000020
     9  H    0.000685   0.000079   0.000059   0.000040   0.004654  -0.000011
    10  H    0.000053   0.000003  -0.000602   0.000000   0.001182   0.000000
    11  H   -0.000008  -0.000001   0.000292   0.000000   0.000197   0.000000
    12  C    0.005528   0.024149  -0.065005  -0.001976  -0.032457   0.001661
    13  H    0.000026   0.000323  -0.002253  -0.000024  -0.006338   0.000010
    14  H   -0.000141   0.001745   0.009816   0.000000   0.002460   0.000011
    15  H   -0.000132  -0.000001  -0.001172   0.000000   0.000383   0.000002
    16  C   -0.083938   0.109546  -2.860909   0.030269   0.663558   0.066616
    17  H   -0.006415   0.004435  -0.048975   0.002010  -0.004400   0.000970
    18  C    0.002517  -0.009200  -0.008916   0.010404   0.003008  -0.003814
    19  C    0.019891  -0.048556   2.003037   0.004123  -0.035019  -0.027023
    20  H   -0.000247   0.000574  -0.001189   0.005112   0.022919  -0.000111
    21  C   -0.001249  -0.017295   0.063964  -0.057207  -0.058947   0.001171
    22  H    0.000014   0.000022  -0.063159   0.000207   0.001502   0.000010
    23  H    0.000006   0.000012  -0.006122   0.001041   0.004156  -0.000014
    24  C    0.424732   0.402782   0.677419   0.023036  -1.251777  -0.115029
    25  H    0.543714  -0.033106   0.006994  -0.000520  -0.068721  -0.007726
    26  H   -0.033106   0.534620  -0.039685  -0.000135  -0.072478   0.006198
    27  C    0.006994  -0.039685  10.383602   0.474252  -0.798749  -0.066289
    28  H   -0.000520  -0.000135   0.474252   0.507419  -0.025586   0.001952
    29  C   -0.068721  -0.072478  -0.798749  -0.025586   9.036396   0.402589
    30  H   -0.007726   0.006198  -0.066289   0.001952   0.402589   0.516309
    31  H   -0.004250  -0.006872   0.066483   0.000067   0.441452  -0.025595
    32  C    0.026140   0.049506  -2.339917  -0.067768  -0.886805   0.056499
    33  C   -0.004570   0.002586  -0.497016   0.010728  -0.131645   0.002454
    34  H    0.000028   0.000000   0.001906  -0.000315   0.052081  -0.000397
    35  H   -0.000094   0.000775   0.076290  -0.000346  -0.020658   0.000379
    36  H    0.000241  -0.004674  -0.063473  -0.000112  -0.041831  -0.000404
    37  C    0.001260  -0.004849   0.308239  -0.043986   0.002257  -0.001234
    38  H    0.000000   0.000011  -0.079210  -0.008379  -0.000515  -0.000006
    39  H   -0.000001   0.000004   0.039133   0.005414  -0.001874   0.000035
    40  C   -0.000887  -0.001360  -0.429143  -0.030125  -0.188395   0.000411
    41  H    0.000000  -0.000001   0.049499   0.000098  -0.003963  -0.000037
    42  H   -0.000001   0.000001   0.033767   0.001255   0.018293  -0.000044
    43  O    0.000003  -0.000002   0.000112   0.000000  -0.000046   0.000000
    44  O    0.000009  -0.000127  -0.064236  -0.000664  -0.011037  -0.004240
    45  C    0.000637   0.008641  -0.087243   0.011053   0.098537   0.031324
    46  H   -0.000004  -0.000004  -0.000069   0.000030   0.000237   0.000000
    47  H    0.000015   0.000056   0.008256  -0.000033  -0.001485   0.000003
             31         32         33         34         35         36
     1  C    0.000029   0.003217  -0.000380  -0.000008   0.000000   0.000033
     2  C    0.000078  -0.031549  -0.000884  -0.000066   0.000109   0.000021
     3  C    0.000782   0.138314  -0.046661  -0.000510   0.000593   0.004011
     4  C   -0.008363   0.301336   0.011635  -0.000039  -0.003893   0.000374
     5  C    0.000510   0.007684   0.024169  -0.000315  -0.000843   0.002942
     6  C   -0.000074  -0.000714  -0.002140  -0.000008  -0.000046   0.000516
     7  H    0.000000   0.000071   0.000008   0.000000   0.000000   0.000000
     8  H    0.000022   0.003627  -0.000300   0.000000   0.000000  -0.000003
     9  H    0.000005  -0.002140  -0.000083   0.000000   0.000000  -0.000001
    10  H    0.000000   0.000138   0.000012   0.000000   0.000000   0.000000
    11  H    0.000000  -0.000001   0.000001   0.000000   0.000000   0.000000
    12  C    0.001520  -0.025259  -0.023425   0.000003  -0.000140   0.005368
    13  H   -0.000004  -0.000692  -0.000018   0.000019  -0.000001   0.000300
    14  H    0.000044   0.003055   0.000046   0.000000   0.000021  -0.000054
    15  H   -0.000002   0.000652   0.000134   0.000000   0.000000  -0.000035
    16  C   -0.021007   1.152543   0.158902  -0.015174  -0.042210   0.081112
    17  H    0.000047  -0.009773   0.000554   0.000035   0.000037  -0.000265
    18  C   -0.000346  -0.232578   0.008978   0.001168  -0.000068  -0.000510
    19  C    0.022658  -1.796251  -0.098894  -0.012257   0.025843   0.010074
    20  H   -0.000181  -0.071254   0.009420   0.000393  -0.000053  -0.001335
    21  C    0.002879  -0.014320  -0.078178  -0.001958   0.003147   0.003610
    22  H   -0.000004   0.007836   0.002413   0.000036  -0.000006   0.000019
    23  H   -0.000003  -0.020309   0.000331   0.000002   0.000000  -0.000011
    24  C   -0.051276  -0.247244   0.083845  -0.008020   0.010283   0.011667
    25  H   -0.004250   0.026140  -0.004570   0.000028  -0.000094   0.000241
    26  H   -0.006872   0.049506   0.002586   0.000000   0.000775  -0.004674
    27  C    0.066483  -2.339917  -0.497016   0.001906   0.076290  -0.063473
    28  H    0.000067  -0.067768   0.010728  -0.000315  -0.000346  -0.000112
    29  C    0.441452  -0.886805  -0.131645   0.052081  -0.020658  -0.041831
    30  H   -0.025595   0.056499   0.002454  -0.000397   0.000379  -0.000404
    31  H    0.511111  -0.114819  -0.012008  -0.000262   0.004521  -0.000550
    32  C   -0.114819  10.916656   0.432993  -0.037977  -0.157600  -0.005257
    33  C   -0.012008   0.432993   5.821466   0.351573   0.441636   0.406995
    34  H   -0.000262  -0.037977   0.351573   0.523959  -0.025552  -0.025703
    35  H    0.004521  -0.157600   0.441636  -0.025552   0.503258  -0.026335
    36  H   -0.000550  -0.005257   0.406995  -0.025703  -0.026335   0.536348
    37  C    0.008612  -0.887116  -0.125371   0.017963   0.016058  -0.016031
    38  H    0.000014   0.013894  -0.001132   0.000140   0.000003  -0.000060
    39  H    0.000027  -0.009968  -0.019080  -0.003885  -0.000186   0.000402
    40  C   -0.005445   0.263939   0.222622  -0.007850  -0.001948  -0.006712
    41  H    0.000001   0.031506   0.005481  -0.000644   0.000029   0.000083
    42  H    0.000007   0.018772  -0.011444  -0.000222  -0.000027   0.000019
    43  O    0.000000   0.000010  -0.000002   0.000000   0.000000   0.000000
    44  O   -0.000130   0.069528  -0.015816   0.000764   0.004987  -0.000998
    45  C    0.016414  -1.190467  -0.260542   0.033695   0.018995  -0.023890
    46  H    0.000000   0.002333  -0.000164  -0.000001   0.000000  -0.000003
    47  H    0.000000  -0.000156   0.000087  -0.000002  -0.000001   0.000017
             37         38         39         40         41         42
     1  C    0.000491  -0.000025   0.000023  -0.000301   0.000000  -0.000001
     2  C    0.035983  -0.000045  -0.000396   0.005729   0.000015  -0.000046
     3  C    0.073485  -0.000213  -0.003078  -0.015232   0.000183  -0.000192
     4  C   -0.172688   0.000507   0.002336   0.004439  -0.000088   0.000547
     5  C   -0.040430  -0.000234   0.000220  -0.001188   0.000008   0.000032
     6  C   -0.004511  -0.000002  -0.000006   0.000795   0.000000   0.000002
     7  H   -0.000046   0.000000   0.000000   0.000000   0.000000   0.000000
     8  H    0.000029   0.000000   0.000000  -0.000015   0.000000   0.000000
     9  H    0.000051   0.000000   0.000000  -0.000123   0.000000   0.000000
    10  H   -0.000014   0.000000   0.000000  -0.000003   0.000000   0.000000
    11  H    0.000004   0.000000   0.000000  -0.000001   0.000000   0.000000
    12  C    0.017097   0.000225  -0.000186  -0.007074   0.000011   0.000037
    13  H    0.001262  -0.000001  -0.000009  -0.000018   0.000000   0.000000
    14  H    0.000594   0.000000  -0.000001  -0.000012   0.000000   0.000000
    15  H   -0.000334   0.000000   0.000000  -0.000007   0.000000   0.000000
    16  C   -0.778293  -0.010707   0.008132  -0.194474   0.008333   0.009967
    17  H   -0.006474   0.000111  -0.000005  -0.001223  -0.000001  -0.000011
    18  C   -0.113991   0.006313   0.000544  -0.003668   0.000025   0.000148
    19  C   -0.063356  -0.023595  -0.008860  -0.023004  -0.000185   0.000691
    20  H   -0.003346  -0.000266   0.000889   0.002225   0.000034  -0.000017
    21  C    0.239296   0.018371  -0.002978  -0.043498   0.000899   0.000068
    22  H   -0.009288   0.000377   0.000163   0.002802   0.000008  -0.000002
    23  H    0.003251  -0.000015   0.000017   0.000090   0.000003  -0.000007
    24  C    0.067397   0.000203   0.000829  -0.011301   0.000172  -0.001808
    25  H    0.001260   0.000000  -0.000001  -0.000887   0.000000  -0.000001
    26  H   -0.004849   0.000011   0.000004  -0.001360  -0.000001   0.000001
    27  C    0.308239  -0.079210   0.039133  -0.429143   0.049499   0.033767
    28  H   -0.043986  -0.008379   0.005414  -0.030125   0.000098   0.001255
    29  C    0.002257  -0.000515  -0.001874  -0.188395  -0.003963   0.018293
    30  H   -0.001234  -0.000006   0.000035   0.000411  -0.000037  -0.000044
    31  H    0.008612   0.000014   0.000027  -0.005445   0.000001   0.000007
    32  C   -0.887116   0.013894  -0.009968   0.263939   0.031506   0.018772
    33  C   -0.125371  -0.001132  -0.019080   0.222622   0.005481  -0.011444
    34  H    0.017963   0.000140  -0.003885  -0.007850  -0.000644  -0.000222
    35  H    0.016058   0.000003  -0.000186  -0.001948   0.000029  -0.000027
    36  H   -0.016031  -0.000060   0.000402  -0.006712   0.000083   0.000019
    37  C    6.713201   0.457301   0.444068  -0.293058  -0.095845  -0.057831
    38  H    0.457301   0.523509  -0.031777  -0.010882   0.001675  -0.008833
    39  H    0.444068  -0.031777   0.505501  -0.100384  -0.007493   0.004587
    40  C   -0.293058  -0.010882  -0.100384   7.433357   0.395151   0.372687
    41  H   -0.095845   0.001675  -0.007493   0.395151   0.490328  -0.017057
    42  H   -0.057831  -0.008833   0.004587   0.372687  -0.017057   0.490426
    43  O   -0.000006   0.000000   0.000000   0.000001   0.000000   0.000000
    44  O   -0.023667  -0.000074  -0.000231   0.003745  -0.004941  -0.008057
    45  C    0.678218  -0.007330   0.020941  -0.855508  -0.039308  -0.032537
    46  H    0.000750   0.000004   0.000008   0.000008   0.000000   0.000000
    47  H    0.002619  -0.000010  -0.000021   0.000104   0.000000   0.000000
             43         44         45         46         47
     1  C    0.491573  -0.000003   0.001263   0.011742   0.000088
     2  C   -0.186037   0.000047  -0.004454   0.045587   0.018073
     3  C   -0.024558  -0.000355   0.028721  -0.197959  -0.051351
     4  C   -0.069054  -0.001336  -0.031311   0.057796   0.018647
     5  C   -0.068281  -0.000346  -0.014209   0.006088   0.000115
     6  C    0.037225  -0.000019  -0.003411   0.001484  -0.006466
     7  H   -0.002646   0.000000  -0.000006   0.005270   0.000682
     8  H   -0.000298  -0.000001   0.000388   0.000013   0.000085
     9  H    0.000325   0.000000   0.000400  -0.000024   0.000043
    10  H   -0.003584   0.000000   0.000011  -0.000007   0.000033
    11  H   -0.002952   0.000000   0.000005  -0.000002  -0.000008
    12  C    0.000895  -0.000146   0.018674   0.002214  -0.005392
    13  H   -0.000010  -0.000001  -0.000163  -0.000153  -0.002729
    14  H   -0.000007  -0.000001   0.000476   0.000023   0.000050
    15  H    0.000172   0.000000   0.000006  -0.000218   0.000887
    16  C   -0.012080  -0.022530   0.117138   0.013696  -0.018890
    17  H    0.000001   0.000012   0.005846  -0.000211  -0.000101
    18  C    0.027143   0.000026  -0.035707   0.387220   0.464400
    19  C   -0.002908  -0.002395   0.036354   0.007598   0.022185
    20  H   -0.000002   0.000030   0.008473  -0.000085   0.001025
    21  C    0.005502  -0.001062   0.016312   0.000962  -0.103246
    22  H   -0.000003   0.000001  -0.003957  -0.003635  -0.009067
    23  H   -0.000014   0.000003   0.002617  -0.005901   0.006173
    24  C   -0.000314  -0.005633  -0.160600   0.002215  -0.004088
    25  H    0.000003   0.000009   0.000637  -0.000004   0.000015
    26  H   -0.000002  -0.000127   0.008641  -0.000004   0.000056
    27  C    0.000112  -0.064236  -0.087243  -0.000069   0.008256
    28  H    0.000000  -0.000664   0.011053   0.000030  -0.000033
    29  C   -0.000046  -0.011037   0.098537   0.000237  -0.001485
    30  H    0.000000  -0.004240   0.031324   0.000000   0.000003
    31  H    0.000000  -0.000130   0.016414   0.000000   0.000000
    32  C    0.000010   0.069528  -1.190467   0.002333  -0.000156
    33  C   -0.000002  -0.015816  -0.260542  -0.000164   0.000087
    34  H    0.000000   0.000764   0.033695  -0.000001  -0.000002
    35  H    0.000000   0.004987   0.018995   0.000000  -0.000001
    36  H    0.000000  -0.000998  -0.023890  -0.000003   0.000017
    37  C   -0.000006  -0.023667   0.678218   0.000750   0.002619
    38  H    0.000000  -0.000074  -0.007330   0.000004  -0.000010
    39  H    0.000000  -0.000231   0.020941   0.000008  -0.000021
    40  C    0.000001   0.003745  -0.855508   0.000008   0.000104
    41  H    0.000000  -0.004941  -0.039308   0.000000   0.000000
    42  H    0.000000  -0.008057  -0.032537   0.000000   0.000000
    43  O    8.095481   0.000000  -0.000001   0.000004   0.000021
    44  O    0.000000   7.946700   0.401192   0.000000   0.000000
    45  C   -0.000001   0.401192   7.241715   0.000015   0.000405
    46  H    0.000004   0.000000   0.000015   0.539831  -0.030959
    47  H    0.000021   0.000000   0.000405  -0.030959   0.511496
 Mulliken atomic charges:
              1
     1  C   -0.071017
     2  C   -0.010335
     3  C    0.361807
     4  C    0.175508
     5  C   -0.163249
     6  C   -0.486310
     7  H    0.131609
     8  H    0.159393
     9  H    0.156846
    10  H    0.174677
    11  H    0.179895
    12  C   -0.689374
    13  H    0.154837
    14  H    0.159340
    15  H    0.165614
    16  C    0.026747
    17  H    0.161763
    18  C   -0.649358
    19  C   -0.107077
    20  H    0.142733
    21  C   -0.266729
    22  H    0.150280
    23  H    0.155893
    24  C   -0.422314
    25  H    0.157513
    26  H    0.145437
    27  C    0.059179
    28  H    0.160085
    29  C   -0.519872
    30  H    0.159770
    31  H    0.173910
    32  C    0.649683
    33  C   -0.669315
    34  H    0.157400
    35  H    0.173043
    36  H    0.154095
    37  C   -0.347719
    38  H    0.160654
    39  H    0.157143
    40  C   -0.475263
    41  H    0.186018
    42  H    0.186829
    43  O   -0.285665
    44  O   -0.258997
    45  C   -0.047821
    46  H    0.154271
    47  H    0.178442
 Sum of Mulliken charges=   0.00000
 Atomic charges with hydrogens summed into heavy atoms:
              1
     1  C   -0.071017
     2  C    0.121274
     3  C    0.361807
     4  C    0.175508
     5  C    0.152990
     6  C   -0.131738
     7  H    0.000000
     8  H    0.000000
     9  H    0.000000
    10  H    0.000000
    11  H    0.000000
    12  C   -0.209584
    13  H    0.000000
    14  H    0.000000
    15  H    0.000000
    16  C    0.188510
    17  H    0.000000
    18  C   -0.316644
    19  C    0.035656
    20  H    0.000000
    21  C    0.039444
    22  H    0.000000
    23  H    0.000000
    24  C   -0.119365
    25  H    0.000000
    26  H    0.000000
    27  C    0.219264
    28  H    0.000000
    29  C   -0.186191
    30  H    0.000000
    31  H    0.000000
    32  C    0.649683
    33  C   -0.184776
    34  H    0.000000
    35  H    0.000000
    36  H    0.000000
    37  C   -0.029923
    38  H    0.000000
    39  H    0.000000
    40  C   -0.102415
    41  H    0.000000
    42  H    0.000000
    43  O   -0.285665
    44  O   -0.258997
    45  C   -0.047821
    46  H    0.000000
    47  H    0.000000
 Sum of Mulliken charges=   0.00000
 Electronic spatial extent (au):  <R**2>=  7028.0216
 Charge=     0.0000 electrons
 Dipole moment (field-independent basis, Debye):
    X=    -2.3317    Y=     1.4571    Z=     3.0489  Tot=     4.1056
 Quadrupole moment (field-independent basis, Debye-Ang):
   XX=  -180.3587   YY=  -125.1342   ZZ=  -130.0062
   XY=   -14.8541   XZ=     3.2072   YZ=    -1.9230
 Traceless Quadrupole moment (field-independent basis, Debye-Ang):
   XX=   -35.1924   YY=    20.0322   ZZ=    15.1602
   XY=   -14.8541   XZ=     3.2072   YZ=    -1.9230
 Octapole moment (field-independent basis, Debye-Ang**2):
  XXX=  -138.2447  YYY=     2.4180  ZZZ=    -3.9768  XYY=    17.3138
  XXY=    35.7315  XXZ=    97.2936  XZZ=    -9.0031  YZZ=     0.7908
  YYZ=     0.6262  XYZ=    17.6605
 Hexadecapole moment (field-independent basis, Debye-Ang**3):
 XXXX= -9398.6297 YYYY= -1500.2769 ZZZZ=  -725.1307 XXXY=  -391.5958
 XXXZ=   158.6078 YYYX=    11.0902 YYYZ=    -3.4446 ZZZX=    14.2000
 ZZZY=     4.9244 XXYY= -1469.8625 XXZZ= -1424.4864 YYZZ=  -374.8431
 XXYZ=   -51.5656 YYXZ=   -20.3327 ZZXY=   -24.5755
 N-N= 1.785152943116D+03 E-N=-5.638932439699D+03  KE= 8.861038706766D+02
 Calculating spin-rotation constants.
 Leave Link  601 at Fri Sep 19 00:44:22 2014, MaxMem= 1769472000 cpu:     616.0
 (Enter /usr/g03/l9999.exe)
 1\1\GINC-FORGE\SP\RB3LYP\6-311+G(d,p)\C19H26O2\JEANNERA\19-Sep-2014\0\
 \#P B3LYP/6-311+G** NMR=SPINSPIN\\empty\\0,1\C,0,4.515349,0.006803,-0.
 625466\C,0,3.5875,1.110614,-0.322767\C,0,2.34779,0.948107,0.185783\C,0
 ,1.71461,-0.429448,0.413839\C,0,2.514228,-1.509852,-0.363638\C,0,4.035
 658,-1.38089,-0.233625\H,0,3.98886,2.108488,-0.489567\H,0,2.205419,-2.
 507736,-0.034539\H,0,2.251767,-1.436537,-1.428143\H,0,4.354221,-1.5591
 53,0.803791\H,0,4.556583,-2.119469,-0.851\C,0,1.76327,-0.737822,1.9343
 4\H,0,1.168458,-0.029858,2.519602\H,0,1.387927,-1.744333,2.144858\H,0,
 2.791459,-0.683536,2.306579\C,0,0.235836,-0.407594,-0.136804\H,0,0.337
 109,-0.259712,-1.225019\C,0,1.533637,2.151626,0.595135\C,0,-0.602552,0
 .808055,0.361369\H,0,-0.709423,0.757148,1.455239\C,0,0.111365,2.121566
 ,0.017625\H,0,-0.456535,2.978754,0.399287\H,0,0.158974,2.234224,-1.075
 318\C,0,-0.505494,-1.755509,0.057979\H,0,0.059588,-2.559527,-0.425274\
 H,0,-0.53989,-2.009946,1.123738\C,0,-1.994573,0.727555,-0.278086\H,0,-
 1.824743,0.703296,-1.369532\C,0,-1.94341,-1.765779,-0.504437\H,0,-1.91
 2361,-1.694148,-1.6002\H,0,-2.433249,-2.718136,-0.269748\C,0,-2.74405,
 -0.584364,0.051017\C,0,-3.053392,-0.778549,1.559337\H,0,-3.630259,0.05
 2203,1.979685\H,0,-3.646639,-1.69016,1.689261\H,0,-2.143086,-0.878889,
 2.156956\C,0,-3.042279,1.837331,-0.04671\H,0,-2.778822,2.775411,-0.544
 486\H,0,-3.153601,2.059776,1.021309\C,0,-4.333302,1.209901,-0.623558\H
 ,0,-5.247736,1.466116,-0.077588\H,0,-4.501016,1.508478,-1.666\O,0,5.62
 0058,0.20672,-1.111909\O,0,-4.871741,-1.148581,-1.03385\C,0,-4.104475,
 -0.315139,-0.603694\H,0,2.054349,3.069975,0.302588\H,0,1.461826,2.1724
 93,1.693768\\Version=AM64L-G03RevC.02\State=1-A\HF=-890.3712811\RMSD=8
 .448e-09\Dipole=-0.9173492,0.5732766,1.1995359\PG=C01 [X(C19H26O2)]\\@


 ERWIN WITH HIS PSI CAN DO
 CALCULATIONS QUITE A FEW.
 BUT ONE THING HAS NOT BEEN SEEN
 JUST WHAT DOES PSI REALLY MEAN.
 -- WALTER HUCKEL, TRANS. BY FELIX BLOCH
 Job cpu time:  3 days 16 hours 12 minutes  2.3 seconds.
 File lengths (MBytes):  RWF=   4273 Int=      0 D2E=      0 Chk=     30 Scr=      1
 Normal termination of Gaussian 03 at Fri Sep 19 00:44:34 2014.
