 Entering Gaussian System, Link 0=g09
 Initial command:
 /usr/g09/l1.exe /tmp/gauss.31063/Gau-31122.inp -scrdir=/tmp/gauss.31063/
 Entering Link 1 = /usr/g09/l1.exe PID=     31123.
  
 Copyright (c) 1988,1990,1992,1993,1995,1998,2003,2009,2011,
            Gaussian, Inc.  All Rights Reserved.
  
 This is part of the Gaussian(R) 09 program.  It is based on
 the Gaussian(R) 03 system (copyright 2003, Gaussian, Inc.),
 the Gaussian(R) 98 system (copyright 1998, Gaussian, Inc.),
 the Gaussian(R) 94 system (copyright 1995, Gaussian, Inc.),
 the Gaussian 92(TM) system (copyright 1992, Gaussian, Inc.),
 the Gaussian 90(TM) system (copyright 1990, Gaussian, Inc.),
 the Gaussian 88(TM) system (copyright 1988, Gaussian, Inc.),
 the Gaussian 86(TM) system (copyright 1986, Carnegie Mellon
 University), and the Gaussian 82(TM) system (copyright 1983,
 Carnegie Mellon University). Gaussian is a federally registered
 trademark of Gaussian, Inc.
  
 This software contains proprietary and confidential information,
 including trade secrets, belonging to Gaussian, Inc.
  
 This software is provided under written license and may be
 used, copied, transmitted, or stored only in accord with that
 written license.
  
 The following legend is applicable only to US Government
 contracts under FAR:
  
                    RESTRICTED RIGHTS LEGEND
  
 Use, reproduction and disclosure by the US Government is
 subject to restrictions as set forth in subparagraphs (a)
 and (c) of the Commercial Computer Software - Restricted
 Rights clause in FAR 52.227-19.
  
 Gaussian, Inc.
 340 Quinnipiac St., Bldg. 40, Wallingford CT 06492
  
  
 ---------------------------------------------------------------
 Warning -- This program may not be used in any manner that
 competes with the business of Gaussian, Inc. or will provide
 assistance to any competitor of Gaussian, Inc.  The licensee
 of this program is prohibited from giving any competitor of
 Gaussian, Inc. access to this program.  By using this program,
 the user acknowledges that Gaussian, Inc. is engaged in the
 business of creating and licensing software in the field of
 computational chemistry and represents and warrants to the
 licensee that it is not a competitor of Gaussian, Inc. and that
 it will not use this program in any manner prohibited above.
 ---------------------------------------------------------------
  

 Cite this work as:
 Gaussian 09, Revision C.01,
 M. J. Frisch, G. W. Trucks, H. B. Schlegel, G. E. Scuseria, 
 M. A. Robb, J. R. Cheeseman, G. Scalmani, V. Barone, B. Mennucci, 
 G. A. Petersson, H. Nakatsuji, M. Caricato, X. Li, H. P. Hratchian, 
 A. F. Izmaylov, J. Bloino, G. Zheng, J. L. Sonnenberg, M. Hada, 
 M. Ehara, K. Toyota, R. Fukuda, J. Hasegawa, M. Ishida, T. Nakajima, 
 Y. Honda, O. Kitao, H. Nakai, T. Vreven, J. A. Montgomery, Jr., 
 J. E. Peralta, F. Ogliaro, M. Bearpark, J. J. Heyd, E. Brothers, 
 K. N. Kudin, V. N. Staroverov, T. Keith, R. Kobayashi, J. Normand, 
 K. Raghavachari, A. Rendell, J. C. Burant, S. S. Iyengar, J. Tomasi, 
 M. Cossi, N. Rega, J. M. Millam, M. Klene, J. E. Knox, J. B. Cross, 
 V. Bakken, C. Adamo, J. Jaramillo, R. Gomperts, R. E. Stratmann, 
 O. Yazyev, A. J. Austin, R. Cammi, C. Pomelli, J. W. Ochterski, 
 R. L. Martin, K. Morokuma, V. G. Zakrzewski, G. A. Voth, 
 P. Salvador, J. J. Dannenberg, S. Dapprich, A. D. Daniels, 
 O. Farkas, J. B. Foresman, J. V. Ortiz, J. Cioslowski, 
 and D. J. Fox, Gaussian, Inc., Wallingford CT, 2010.
 
 ******************************************
 Gaussian 09:  AM64L-G09RevC.01 23-Sep-2011
                16-Sep-2013 
 ******************************************
 %mem=13500MB
 %nproc=6
 Will use up to    6 processors via shared memory.
 -------------------------------
 #p B3LYP/6-311+G** NMR=SPINSPIN
 -------------------------------
 1/38=1/1;
 2/12=2,17=6,18=5,40=1/2;
 3/5=4,6=6,7=111,11=2,16=1,25=1,30=1,74=-5/1,2,8,3;
 4//1;
 5/5=2,38=5/2;
 8/6=1,10=90,11=11/1;
 10/13=100,45=16,47=1/2;
 6/7=2,8=2,9=2,10=2,28=1/1;
 99/9=1/99;
 Leave Link    1 at Mon Sep 16 12:09:16 2013, MaxMem= 1769472000 cpu:       0.1
 (Enter /usr/g09/l101.exe)
 -----
 empty
 -----
 Charge =  0 Multiplicity = 1
 Symbolic Z-Matrix:
 1                    -2.70008  -2.5448    0. 
 6                    -1.65826  -2.23337   0. 
 6                    -0.66332  -3.15561   0. 
 6                    -1.37531  -0.81914   0. 
 6                     0.72336  -2.76034   0. 
 1                    -0.89502  -4.218     0. 
 6                     0.       -0.3848    0. 
 6                    -2.38525   0.12641   0. 
 6                     1.76153  -3.69787   0. 
 6                     1.04084  -1.36545   0. 
 6                     0.31466   0.99931   0. 
 1                    -3.42311  -0.20051   0. 
 6                    -2.11111   1.51385   0. 
 6                     3.09976  -3.28965   0. 
 1                     1.51692  -4.75733   0. 
 6                     2.40814  -0.95934   0. 
 6                    -0.75115   1.97175   0. 
 6                     1.69754   1.37156   0. 
 6                     3.42142  -1.93964   0. 
 1                     3.89018  -4.03526   0. 
 6                     2.69605   0.43985   0. 
 1                     1.96827   2.4214    0. 
 1                     4.46152  -1.62283   0. 
 1                     3.73621   0.75695   0. 
 6                    -0.52641   3.37462   0. 
 6                    -3.16874   2.46531   0. 
 6                    -1.57241   4.27226   0. 
 1                    -1.36678   5.33917   0. 
 6                    -2.91045   3.81555   0. 
 1                    -3.728     4.53113   0. 
 1                     0.48736   3.75957   0. 
 1                    -4.19267   2.09893   0. 
 
 NAtoms=     32 NQM=        0 NQMF=       0 NMMI=     32 NMMIF=      0
                NMic=       0 NMicF=      0.
                    Isotopes and Nuclear Properties:
 (Nuclear quadrupole moments (NQMom) in fm**2, nuclear magnetic moments (NMagM)
  in nuclear magnetons)

  Atom         1           2           3           4           5           6           7           8           9          10
 IAtWgt=           1          12          12          12          12           1          12          12          12          12
 AtmWgt=   1.0078250  12.0000000  12.0000000  12.0000000  12.0000000   1.0078250  12.0000000  12.0000000  12.0000000  12.0000000
 NucSpn=           1           0           0           0           0           1           0           0           0           0
 AtZEff=   0.0000000   0.0000000   0.0000000   0.0000000   0.0000000   0.0000000   0.0000000   0.0000000   0.0000000   0.0000000
 NQMom=    0.0000000   0.0000000   0.0000000   0.0000000   0.0000000   0.0000000   0.0000000   0.0000000   0.0000000   0.0000000
 NMagM=    2.7928460   0.0000000   0.0000000   0.0000000   0.0000000   2.7928460   0.0000000   0.0000000   0.0000000   0.0000000

  Atom        11          12          13          14          15          16          17          18          19          20
 IAtWgt=          12           1          12          12           1          12          12          12          12           1
 AtmWgt=  12.0000000   1.0078250  12.0000000  12.0000000   1.0078250  12.0000000  12.0000000  12.0000000  12.0000000   1.0078250
 NucSpn=           0           1           0           0           1           0           0           0           0           1
 AtZEff=   0.0000000   0.0000000   0.0000000   0.0000000   0.0000000   0.0000000   0.0000000   0.0000000   0.0000000   0.0000000
 NQMom=    0.0000000   0.0000000   0.0000000   0.0000000   0.0000000   0.0000000   0.0000000   0.0000000   0.0000000   0.0000000
 NMagM=    0.0000000   2.7928460   0.0000000   0.0000000   2.7928460   0.0000000   0.0000000   0.0000000   0.0000000   2.7928460

  Atom        21          22          23          24          25          26          27          28          29          30
 IAtWgt=          12           1           1           1          12          12          12           1          12           1
 AtmWgt=  12.0000000   1.0078250   1.0078250   1.0078250  12.0000000  12.0000000  12.0000000   1.0078250  12.0000000   1.0078250
 NucSpn=           0           1           1           1           0           0           0           1           0           1
 AtZEff=   0.0000000   0.0000000   0.0000000   0.0000000   0.0000000   0.0000000   0.0000000   0.0000000   0.0000000   0.0000000
 NQMom=    0.0000000   0.0000000   0.0000000   0.0000000   0.0000000   0.0000000   0.0000000   0.0000000   0.0000000   0.0000000
 NMagM=    0.0000000   2.7928460   2.7928460   2.7928460   0.0000000   0.0000000   0.0000000   2.7928460   0.0000000   2.7928460

  Atom        31          32
 IAtWgt=           1           1
 AtmWgt=   1.0078250   1.0078250
 NucSpn=           1           1
 AtZEff=   0.0000000   0.0000000
 NQMom=    0.0000000   0.0000000
 NMagM=    2.7928460   2.7928460
 Leave Link  101 at Mon Sep 16 12:09:16 2013, MaxMem= 1769472000 cpu:       0.6
 (Enter /usr/g09/l202.exe)
                          Input orientation:                          
 ---------------------------------------------------------------------
 Center     Atomic      Atomic             Coordinates (Angstroms)
 Number     Number       Type             X           Y           Z
 ---------------------------------------------------------------------
      1          1           0       -2.700076   -2.544802    0.000000
      2          6           0       -1.658264   -2.233370    0.000000
      3          6           0       -0.663323   -3.155608    0.000000
      4          6           0       -1.375307   -0.819137    0.000000
      5          6           0        0.723359   -2.760337    0.000000
      6          1           0       -0.895016   -4.217998    0.000000
      7          6           0        0.000000   -0.384801    0.000000
      8          6           0       -2.385248    0.126412    0.000000
      9          6           0        1.761526   -3.697865    0.000000
     10          6           0        1.040838   -1.365452    0.000000
     11          6           0        0.314656    0.999307    0.000000
     12          1           0       -3.423110   -0.200507    0.000000
     13          6           0       -2.111109    1.513852    0.000000
     14          6           0        3.099756   -3.289649    0.000000
     15          1           0        1.516917   -4.757327    0.000000
     16          6           0        2.408140   -0.959343    0.000000
     17          6           0       -0.751151    1.971748    0.000000
     18          6           0        1.697540    1.371558    0.000000
     19          6           0        3.421422   -1.939638    0.000000
     20          1           0        3.890182   -4.035256    0.000000
     21          6           0        2.696047    0.439848    0.000000
     22          1           0        1.968273    2.421396    0.000000
     23          1           0        4.461517   -1.622831    0.000000
     24          1           0        3.736208    0.756946    0.000000
     25          6           0       -0.526409    3.374621    0.000000
     26          6           0       -3.168744    2.465311    0.000000
     27          6           0       -1.572412    4.272257    0.000000
     28          1           0       -1.366783    5.339166    0.000000
     29          6           0       -2.910450    3.815550    0.000000
     30          1           0       -3.728004    4.531125    0.000000
     31          1           0        0.487360    3.759569    0.000000
     32          1           0       -4.192673    2.098933    0.000000
 ---------------------------------------------------------------------
                    Distance matrix (angstroms):
                    1          2          3          4          5
     1  H    0.000000
     2  C    1.087365   0.000000
     3  C    2.126369   1.356625   0.000000
     4  C    2.175530   1.442262   2.442543   0.000000
     5  C    3.430213   2.439226   1.441918   2.858786   0.000000
     6  H    2.461265   2.126334   1.087361   3.432628   2.178053
     7  C    3.457747   2.483354   2.849100   1.442261   2.483228
     8  C    2.689703   2.469226   3.706303   1.383490   4.242259
     9  C    4.608193   3.720176   2.484740   4.257558   1.398839
    10  C    3.922410   2.835213   2.471603   2.477139   1.430558
    11  C    4.652883   3.787164   4.268461   2.482481   3.781793
    12  H    2.453263   2.692065   4.043395   2.139206   4.872980
    13  C    4.101165   3.774486   4.888757   2.446271   5.128635
    14  C    5.847465   4.873857   3.765466   5.111714   2.434632
    15  H    4.762174   4.056123   2.705356   4.886133   2.148884
    16  C    5.348603   4.261313   3.775906   3.786044   2.466185
    17  C    4.919099   4.301845   5.128108   2.859827   4.956492
    18  C    5.888710   4.925132   5.105772   3.773796   4.245184
    19  C    6.151338   5.088171   4.261892   4.925864   2.820122
    20  H    6.756697   5.833699   4.637692   6.169992   3.413823
    21  C    6.166545   5.109415   4.920637   4.261569   3.759346
    22  H    6.815908   5.900730   6.166707   4.656241   5.329181
    23  H    7.220696   6.150161   5.349149   5.891896   3.907396
    24  H    7.233761   6.167845   5.887610   5.348983   4.631257
    25  C    6.305902   5.721071   6.531664   4.278812   6.260961
    26  C    5.031986   4.935499   6.154012   3.742194   6.515816
    27  C    6.909697   6.506193   7.483289   5.095208   7.397834
    28  H    7.995913   7.578144   8.523851   6.158309   8.364846
    29  C    6.363830   6.177168   7.324386   4.882314   7.513112
    30  H    7.150201   7.074052   8.275152   5.844697   8.542836
    31  H    7.064336   6.365455   7.010260   4.943084   6.524176
    32  H    4.877717   5.019171   6.329811   4.056191   6.912299
                    6          7          8          9         10
     6  H    0.000000
     7  C    3.936299   0.000000
     8  C    4.592896   2.439415   0.000000
     9  C    2.706982   3.752248   5.640995   0.000000
    10  C    3.447397   1.430042   3.736807   2.441217   0.000000
    11  C    5.355705   1.419424   2.837504   4.914963   2.473747
    12  H    4.746735   3.428067   1.088133   6.253956   4.613451
    13  C    5.859436   2.839307   1.414264   6.493019   4.269094
    14  C    4.101224   4.248132   6.461791   1.399107   2.818098
    15  H    2.471497   4.628177   6.251224   1.087333   3.425123
    16  C    4.640008   2.475730   4.914818   2.813825   1.426338
    17  C    6.191418   2.473368   2.464861   6.201456   3.787892
    18  C    6.161533   2.442630   4.268436   5.069827   2.814690
    19  C    4.880836   3.758144   6.163277   2.417978   2.448851
    20  H    4.788686   5.334729   7.529974   2.155228   3.904691
    21  C    5.881434   2.819347   5.090953   4.241933   2.449250
    22  H    7.230489   3.427658   4.921392   6.122753   3.898763
    23  H    5.952087   4.630103   7.066685   3.405249   3.430348
    24  H    6.796933   3.906768   6.153844   4.872854   3.430684
    25  C    7.601561   3.796098   3.742478   7.433351   4.992450
    26  C    7.059494   4.261933   2.466640   7.892547   5.691689
    27  C    8.517235   4.915350   4.224776   8.639328   6.213923
    28  H    9.568801   5.884887   5.311316   9.563171   7.123801
    29  C    8.282504   5.110153   3.726336   8.847529   6.515785
    30  H    9.196357   6.169631   4.604833   9.891977   7.583632
    31  H    8.096452   4.172927   4.631599   7.565502   5.154821
    32  H    7.125880   4.873135   2.675374   8.309955   6.276273
                   11         12         13         14         15
    11  C    0.000000
    12  H    3.925614   0.000000
    13  C    2.479736   2.158790   0.000000
    14  C    5.113895   7.217380   7.087082   0.000000
    15  H    5.880839   6.720750   7.245016   2.158578   0.000000
    16  C    2.866877   5.880417   5.151728   2.430773   3.901149
    17  C    1.442770   3.443553   1.434975   6.520106   7.101027
    18  C    1.432110   5.356533   3.811306   4.867552   6.131546
    19  C    4.276610   7.062025   6.521924   1.387804   3.400957
    20  H    6.175047   8.257696   8.173622   1.086602   2.480680
    21  C    2.446225   6.152572   4.925671   3.751284   5.329257
    22  H    2.181006   5.995114   4.179114   5.822052   7.192898
    23  H    4.906329   8.011888   7.282733   2.152365   4.300667
    24  H    3.430125   7.223057   5.896102   4.096340   5.944111
    25  C    2.519823   4.601349   2.444123   7.586934   8.384734
    26  C    3.779318   2.677926   1.422626   8.509621   8.609409
    27  C    3.777993   4.840527   2.810515   8.888846   9.543445
    28  H    4.654204   5.909015   3.897056   9.716297  10.500233
    29  C    4.281651   4.048646   2.436547   9.306258   9.648616
    30  H    5.368132   4.741445   3.423198  10.381850  10.666983
    31  H    2.765660   5.565427   3.434427   7.517718   8.578899
    32  H    4.639525   2.424799   2.162228   9.067322   8.922316
                   16         17         18         19         20
    16  C    0.000000
    17  C    4.309572   0.000000
    18  C    2.436812   2.521173   0.000000
    19  C    1.409865   5.719205   3.733067   0.000000
    20  H    3.414336   7.591184   5.834494   2.147406   0.000000
    21  C    1.428505   3.772253   1.365687   2.487594   4.631686
    22  H    3.409234   2.756347   1.084185   4.596766   6.736623
    23  H    2.157910   6.331896   4.075038   1.087274   2.479157
    24  H    2.170118   4.648885   2.129299   2.714895   4.794675
    25  C    5.234006   1.420761   2.993027   6.620175   8.626271
    26  C    6.544455   2.467460   4.987686   7.926781   9.596135
    27  C    6.573769   2.442706   4.371114   7.970321   9.942570
    28  H    7.343110   3.423230   5.013181   8.712514  10.747812
    29  C    7.147517   2.839397   5.216001   8.556564  10.386710
    30  H    8.233924   3.925820   6.278486   9.642876  11.463841
    31  H    5.094853   2.174905   2.677150   6.410123   8.505204
    32  H    7.274873   3.443871   5.934954   8.618846  10.146961
                   21         22         23         24         25
    21  C    0.000000
    22  H    2.110968   0.000000
    23  H    2.715056   4.751004   0.000000
    24  H    1.087422   2.428166   2.487853   0.000000
    25  C    4.358568   2.670595   7.060732   5.002212   0.000000
    26  C    6.204698   5.137205   8.656430   7.113148   2.794419
    27  C    5.736471   3.995264   8.435660   6.367013   1.378359
    28  H    6.364739   4.431250   9.079564   6.858371   2.136742
    29  C    6.544324   5.074013   9.160889   7.316633   2.424473
    30  H    7.616231   6.074416  10.243995   8.364143   3.404073
    31  H    3.987336   1.995948   6.690602   4.423885   1.084395
    32  H    7.085692   6.169379   9.420538   8.041647   3.881864
                   26         27         28         29         30
    26  C    0.000000
    27  C    2.411085   0.000000
    28  H    3.392065   1.086544   0.000000
    29  C    1.374722   1.413834   2.168943   0.000000
    30  H    2.140177   2.171080   2.495655   1.086482   0.000000
    31  H    3.878428   2.122619   2.435769   3.398271   4.285393
    32  H    1.087503   3.404277   4.299391   2.142632   2.476182
                   31         32
    31  H    0.000000
    32  H    4.965926   0.000000
 Stoichiometry    C20H12
 Framework group  CS[SG(C20H12)]
 Deg. of freedom    61
 Full point group                 CS      NOp   2
 Largest Abelian subgroup         CS      NOp   2
 Largest concise Abelian subgroup C1      NOp   1
                         Standard orientation:                         
 ---------------------------------------------------------------------
 Center     Atomic      Atomic             Coordinates (Angstroms)
 Number     Number       Type             X           Y           Z
 ---------------------------------------------------------------------
      1          1           0       -2.700076    2.544802    0.000000
      2          6           0       -1.658264    2.233370    0.000000
      3          6           0       -0.663323    3.155608    0.000000
      4          6           0       -1.375307    0.819137    0.000000
      5          6           0        0.723359    2.760337    0.000000
      6          1           0       -0.895016    4.217998    0.000000
      7          6           0        0.000000    0.384801    0.000000
      8          6           0       -2.385248   -0.126412    0.000000
      9          6           0        1.761526    3.697865    0.000000
     10          6           0        1.040838    1.365452    0.000000
     11          6           0        0.314656   -0.999307    0.000000
     12          1           0       -3.423110    0.200507    0.000000
     13          6           0       -2.111109   -1.513852    0.000000
     14          6           0        3.099756    3.289649    0.000000
     15          1           0        1.516917    4.757327    0.000000
     16          6           0        2.408140    0.959343    0.000000
     17          6           0       -0.751151   -1.971748    0.000000
     18          6           0        1.697540   -1.371558    0.000000
     19          6           0        3.421422    1.939638    0.000000
     20          1           0        3.890182    4.035256    0.000000
     21          6           0        2.696047   -0.439848    0.000000
     22          1           0        1.968273   -2.421396    0.000000
     23          1           0        4.461517    1.622831    0.000000
     24          1           0        3.736208   -0.756946    0.000000
     25          6           0       -0.526409   -3.374621    0.000000
     26          6           0       -3.168744   -2.465311    0.000000
     27          6           0       -1.572412   -4.272257    0.000000
     28          1           0       -1.366783   -5.339166    0.000000
     29          6           0       -2.910450   -3.815550    0.000000
     30          1           0       -3.728004   -4.531125    0.000000
     31          1           0        0.487360   -3.759569    0.000000
     32          1           0       -4.192673   -2.098933    0.000000
 ---------------------------------------------------------------------
 Rotational constants (GHZ):      0.8496958      0.2561773      0.1968334
 Leave Link  202 at Mon Sep 16 12:09:16 2013, MaxMem= 1769472000 cpu:       0.0
 (Enter /usr/g09/l301.exe)
 Standard basis: 6-311+G(d,p) (5D, 7F)
 Ernie: Thresh=  0.10000D-02 Tol=  0.10000D-05 Strict=F.
 There are   380 symmetry adapted basis functions of A'  symmetry.
 There are   132 symmetry adapted basis functions of A"  symmetry.
 Integral buffers will be    131072 words long.
 Raffenetti 2 integral format.
 Two-electron integral symmetry is turned on.
   512 basis functions,   816 primitive gaussians,   532 cartesian basis functions
    66 alpha electrons       66 beta electrons
       nuclear repulsion energy      1351.8762580628 Hartrees.
 IExCor=  402 DFT=T Ex+Corr=B3LYP ExCW=0 ScaHFX=  0.200000
 ScaDFX=  0.800000  0.720000  1.000000  0.810000 ScalE2=  1.000000  1.000000
 IRadAn=      0 IRanWt=     -1 IRanGd=            0 ICorTp=0
 NAtoms=   32 NActive=   32 NUniq=   32 SFac= 1.00D+00 NAtFMM=   60 NAOKFM=F Big=F
 Leave Link  301 at Mon Sep 16 12:09:16 2013, MaxMem= 1769472000 cpu:       0.3
 (Enter /usr/g09/l302.exe)
 NPDir=0 NMtPBC=     1 NCelOv=     1 NCel=       1 NClECP=     1 NCelD=      1
         NCelK=      1 NCelE2=     1 NClLst=     1 CellRange=     0.0.
 One-electron integrals computed using PRISM.
 NBasis=   512 RedAO= T  NBF=   380   132
 NBsUse=   500 1.00D-06 NBFU=   368   132
 Precomputing XC quadrature grid using
 IXCGrd= 2 IRadAn=           0 IRanWt=          -1 IRanGd=           0 AccXCQ= 0.00D+00.
 NRdTot=    2073 NPtTot=      264922 NUsed=      279862 NTot=      279894
 NSgBfM=   528   528   528   528   528 NAtAll=    32    32.
 Leave Link  302 at Mon Sep 16 12:09:17 2013, MaxMem= 1769472000 cpu:       4.6
 (Enter /usr/g09/l308.exe)
 Leave Link  308 at Mon Sep 16 12:09:18 2013, MaxMem= 1769472000 cpu:       1.6
 (Enter /usr/g09/l303.exe)
 DipDrv:  MaxL=1.
 Leave Link  303 at Mon Sep 16 12:09:18 2013, MaxMem= 1769472000 cpu:       0.8
 (Enter /usr/g09/l401.exe)
 Harris functional with IExCor=  402 diagonalized for initial guess.
 ExpMin= 4.38D-02 ExpMax= 4.56D+03 ExpMxC= 6.82D+02 IAcc=2 IRadAn=         4 AccDes= 0.00D+00
 HarFok:  IExCor=  402 AccDes= 0.00D+00 IRadAn=         4 IDoV= 1
 ScaDFX=  1.000000  1.000000  1.000000  1.000000
 FoFCou: FMM=F IPFlag=           0 FMFlag=      100000 FMFlg1=           0
         NFxFlg=           0 DoJE=T BraDBF=F KetDBF=T FulRan=T
         Omega=  0.000000  0.000000  1.000000  0.000000  0.000000 ICntrl=     500 IOpCl=  0
         NMat0=    1 NMatS0=    1 NMatT0=    0 NMatD0=    1 NMtDS0=    0 NMtDT0=    0
         I1Cent=           4 NGrid=           0.
 Petite list used in FoFCou.
 Harris En= -769.570914164406    
 Initial guess orbital symmetries:
       Occupied  (A') (A') (A') (A') (A') (A') (A') (A') (A') (A')
                 (A') (A') (A') (A') (A') (A') (A') (A') (A') (A')
                 (A') (A') (A') (A') (A') (A') (A') (A') (A') (A')
                 (A') (A') (A') (A') (A') (A') (A') (A') (A') (A')
                 (A') (A') (A') (A') (A') (A') (A') (A') (A') (A')
                 (A") (A') (A') (A') (A") (A') (A') (A") (A') (A")
                 (A") (A") (A") (A") (A") (A")
       Virtual   (A") (A") (A") (A") (A") (A") (A") (A") (A') (A')
                 (A') (A') (A') (A') (A') (A') (A") (A') (A') (A")
                 (A') (A") (A') (A") (A') (A') (A') (A") (A') (A")
                 (A') (A') (A") (A') (A') (A") (A') (A') (A") (A")
                 (A') (A') (A') (A') (A') (A') (A") (A') (A') (A")
                 (A') (A') (A") (A') (A') (A') (A') (A") (A') (A')
                 (A') (A") (A') (A') (A") (A') (A') (A') (A") (A')
                 (A') (A') (A") (A') (A') (A') (A') (A') (A") (A')
                 (A') (A') (A") (A') (A') (A') (A") (A') (A') (A')
                 (A") (A') (A') (A') (A') (A') (A') (A') (A') (A')
                 (A') (A') (A') (A') (A') (A') (A') (A') (A') (A')
                 (A') (A') (A') (A') (A") (A') (A') (A') (A") (A')
                 (A') (A") (A") (A') (A") (A') (A') (A') (A") (A')
                 (A') (A") (A') (A") (A') (A") (A') (A") (A') (A')
                 (A') (A") (A") (A') (A") (A') (A') (A") (A') (A')
                 (A') (A") (A') (A") (A') (A') (A") (A") (A') (A')
                 (A") (A') (A") (A') (A') (A') (A') (A') (A') (A')
                 (A') (A') (A") (A') (A') (A") (A') (A') (A') (A')
                 (A') (A') (A') (A") (A') (A") (A') (A') (A') (A')
                 (A") (A") (A") (A') (A") (A') (A") (A") (A') (A")
                 (A') (A") (A") (A') (A") (A') (A") (A') (A") (A')
                 (A') (A') (A') (A') (A') (A') (A') (A') (A') (A')
                 (A') (A') (A') (A") (A') (A') (A") (A') (A") (A')
                 (A') (A') (A") (A") (A') (A') (A') (A') (A") (A')
                 (A") (A') (A") (A") (A') (A') (A") (A') (A') (A')
                 (A') (A") (A') (A') (A") (A') (A") (A") (A") (A')
                 (A") (A') (A') (A") (A") (A') (A") (A') (A') (A")
                 (A') (A') (A") (A') (A") (A') (A") (A') (A") (A')
                 (A') (A') (A') (A') (A") (A') (A') (A") (A') (A")
                 (A') (A') (A') (A') (A") (A') (A') (A') (A") (A')
                 (A") (A') (A") (A') (A") (A') (A') (A') (A") (A')
                 (A") (A') (A') (A') (A') (A') (A') (A") (A") (A')
                 (A') (A') (A') (A") (A') (A") (A') (A") (A") (A")
                 (A') (A') (A') (A') (A') (A') (A") (A') (A') (A')
                 (A") (A') (A') (A') (A') (A") (A') (A') (A") (A')
                 (A") (A') (A') (A') (A") (A') (A") (A") (A") (A')
                 (A') (A') (A") (A') (A") (A") (A") (A") (A') (A")
                 (A') (A') (A') (A') (A') (A') (A') (A') (A') (A')
                 (A') (A') (A') (A') (A') (A') (A') (A') (A') (A')
                 (A') (A') (A') (A') (A') (A') (A') (A') (A') (A')
                 (A') (A') (A') (A') (A') (A') (A') (A') (A') (A')
                 (A') (A') (A') (A') (A') (A') (A') (A') (A') (A')
                 (A') (A') (A') (A') (A') (A') (A') (A') (A') (A')
                 (A') (A') (A') (A')
 The electronic state of the initial guess is 1-A'.
 Leave Link  401 at Mon Sep 16 12:09:20 2013, MaxMem= 1769472000 cpu:      13.5
 (Enter /usr/g09/l502.exe)
 Closed shell SCF:
 Requested convergence on RMS density matrix=1.00D-08 within 128 cycles.
 Requested convergence on MAX density matrix=1.00D-06.
 Requested convergence on             energy=1.00D-06.
 No special actions if energy rises.
 Using DIIS extrapolation, IDIIS=  1040.
 Integral symmetry usage will be decided dynamically.
       279561 words used for storage of precomputed grid.
 IEnd=     1154075 IEndB=     1154075 NGot=  1769472000 MDV=  1768618122
 LenX=  1768618122 LenY=  1768334566
 Fock matrices will be formed incrementally for  20 cycles.

 Cycle   1  Pass 1  IDiag  1:
 FoFCou: FMM=F IPFlag=           0 FMFlag=      100000 FMFlg1=           0
         NFxFlg=           0 DoJE=F BraDBF=F KetDBF=F FulRan=T
         Omega=  0.000000  0.000000  1.000000  0.000000  0.000000 ICntrl=       0 IOpCl=  0
         NMat0=    1 NMatS0=    1 NMatT0=    0 NMatD0=    1 NMtDS0=    0 NMtDT0=    0
         I1Cent=           0 NGrid=           0.
 Petite list used in FoFCou.
 E= -769.222315604151    
 DIIS: error= 3.68D-02 at cycle   1 NSaved=   1.
 NSaved= 1 IEnMin= 1 EnMin= -769.222315604151     IErMin= 1 ErrMin= 3.68D-02
 ErrMax= 3.68D-02 EMaxC= 1.00D-01 BMatC= 3.68D-01 BMatP= 3.68D-01
 IDIUse=3 WtCom= 6.32D-01 WtEn= 3.68D-01
 Coeff-Com:  0.100D+01
 Coeff-En:   0.100D+01
 Coeff:      0.100D+01
 Gap=     0.123 Goal=   None    Shift=    0.000
 GapD=    0.123 DampG=1.000 DampE=0.500 DampFc=0.5000 IDamp=-1.
 Damping current iteration by 5.00D-01
 RMSDP=1.02D-02 MaxDP=5.59D-01              OVMax= 1.69D-01

 Cycle   2  Pass 1  IDiag  1:
 RMSU=  3.53D-03    CP:  1.03D+00
 E= -769.399978133042     Delta-E=       -0.177662528891 Rises=F Damp=T
 DIIS: error= 7.84D-03 at cycle   2 NSaved=   2.
 NSaved= 2 IEnMin= 2 EnMin= -769.399978133042     IErMin= 2 ErrMin= 7.84D-03
 ErrMax= 7.84D-03 EMaxC= 1.00D-01 BMatC= 2.19D-02 BMatP= 3.68D-01
 IDIUse=3 WtCom= 9.22D-01 WtEn= 7.84D-02
 Coeff-Com: -0.672D-01 0.107D+01
 Coeff-En:   0.000D+00 0.100D+01
 Coeff:     -0.619D-01 0.106D+01
 Gap=     0.126 Goal=   None    Shift=    0.000
 RMSDP=2.83D-03 MaxDP=8.82D-02 DE=-1.78D-01 OVMax= 9.74D-02

 Cycle   3  Pass 1  IDiag  1:
 RMSU=  1.94D-03    CP:  1.01D+00  1.00D+00
 E= -769.579420137529     Delta-E=       -0.179442004488 Rises=F Damp=F
 DIIS: error= 5.72D-03 at cycle   3 NSaved=   3.
 NSaved= 3 IEnMin= 3 EnMin= -769.579420137529     IErMin= 3 ErrMin= 5.72D-03
 ErrMax= 5.72D-03 EMaxC= 1.00D-01 BMatC= 1.03D-02 BMatP= 2.19D-02
 IDIUse=3 WtCom= 9.43D-01 WtEn= 5.72D-02
 Coeff-Com: -0.878D-01 0.436D+00 0.652D+00
 Coeff-En:   0.000D+00 0.000D+00 0.100D+01
 Coeff:     -0.828D-01 0.411D+00 0.672D+00
 Gap=     0.124 Goal=   None    Shift=    0.000
 RMSDP=1.64D-03 MaxDP=9.89D-02 DE=-1.79D-01 OVMax= 5.06D-02

 Cycle   4  Pass 1  IDiag  1:
 RMSU=  5.92D-04    CP:  9.97D-01  9.22D-01  5.35D-01
 E= -769.583491766449     Delta-E=       -0.004071628920 Rises=F Damp=F
 DIIS: error= 5.94D-03 at cycle   4 NSaved=   4.
 NSaved= 4 IEnMin= 4 EnMin= -769.583491766449     IErMin= 3 ErrMin= 5.72D-03
 ErrMax= 5.94D-03 EMaxC= 1.00D-01 BMatC= 5.74D-03 BMatP= 1.03D-02
 IDIUse=3 WtCom= 9.41D-01 WtEn= 5.94D-02
 Coeff-Com: -0.540D-01 0.192D+00 0.462D+00 0.399D+00
 Coeff-En:   0.000D+00 0.000D+00 0.395D+00 0.605D+00
 Coeff:     -0.508D-01 0.181D+00 0.458D+00 0.411D+00
 Gap=     0.123 Goal=   None    Shift=    0.000
 RMSDP=5.69D-04 MaxDP=2.58D-02 DE=-4.07D-03 OVMax= 3.67D-02

 Cycle   5  Pass 1  IDiag  1:
 RMSU=  3.44D-04    CP:  9.91D-01  9.22D-01  5.68D-01  7.67D-01
 E= -769.589910771761     Delta-E=       -0.006419005313 Rises=F Damp=F
 DIIS: error= 1.28D-03 at cycle   5 NSaved=   5.
 NSaved= 5 IEnMin= 5 EnMin= -769.589910771761     IErMin= 5 ErrMin= 1.28D-03
 ErrMax= 1.28D-03 EMaxC= 1.00D-01 BMatC= 3.58D-04 BMatP= 5.74D-03
 IDIUse=3 WtCom= 9.87D-01 WtEn= 1.28D-02
 Coeff-Com: -0.189D-01 0.513D-01 0.167D+00 0.243D+00 0.558D+00
 Coeff-En:   0.000D+00 0.000D+00 0.000D+00 0.441D-01 0.956D+00
 Coeff:     -0.186D-01 0.506D-01 0.165D+00 0.240D+00 0.563D+00
 Gap=     0.122 Goal=   None    Shift=    0.000
 RMSDP=2.11D-04 MaxDP=8.37D-03 DE=-6.42D-03 OVMax= 1.23D-02

 Cycle   6  Pass 1  IDiag  1:
 RMSU=  5.42D-05    CP:  9.93D-01  9.34D-01  6.11D-01  7.34D-01  7.29D-01
 E= -769.590290271602     Delta-E=       -0.000379499841 Rises=F Damp=F
 DIIS: error= 5.98D-04 at cycle   6 NSaved=   6.
 NSaved= 6 IEnMin= 6 EnMin= -769.590290271602     IErMin= 6 ErrMin= 5.98D-04
 ErrMax= 5.98D-04 EMaxC= 1.00D-01 BMatC= 5.08D-05 BMatP= 3.58D-04
 IDIUse=3 WtCom= 9.94D-01 WtEn= 5.98D-03
 Coeff-Com: -0.640D-02 0.123D-01 0.575D-01 0.112D+00 0.357D+00 0.467D+00
 Coeff-En:   0.000D+00 0.000D+00 0.000D+00 0.000D+00 0.935D-01 0.907D+00
 Coeff:     -0.636D-02 0.122D-01 0.571D-01 0.111D+00 0.356D+00 0.470D+00
 Gap=     0.122 Goal=   None    Shift=    0.000
 RMSDP=4.11D-05 MaxDP=2.03D-03 DE=-3.79D-04 OVMax= 4.48D-03

 Cycle   7  Pass 1  IDiag  1:
 RMSU=  1.54D-05    CP:  9.93D-01  9.34D-01  6.08D-01  7.53D-01  7.38D-01
                    CP:  6.06D-01
 E= -769.590345112827     Delta-E=       -0.000054841224 Rises=F Damp=F
 DIIS: error= 1.48D-04 at cycle   7 NSaved=   7.
 NSaved= 7 IEnMin= 7 EnMin= -769.590345112827     IErMin= 7 ErrMin= 1.48D-04
 ErrMax= 1.48D-04 EMaxC= 1.00D-01 BMatC= 1.67D-06 BMatP= 5.08D-05
 IDIUse=3 WtCom= 9.99D-01 WtEn= 1.48D-03
 Coeff-Com: -0.254D-02 0.413D-02 0.232D-01 0.491D-01 0.165D+00 0.252D+00
 Coeff-Com:  0.508D+00
 Coeff-En:   0.000D+00 0.000D+00 0.000D+00 0.000D+00 0.000D+00 0.000D+00
 Coeff-En:   0.100D+01
 Coeff:     -0.254D-02 0.413D-02 0.232D-01 0.490D-01 0.165D+00 0.252D+00
 Coeff:      0.509D+00
 Gap=     0.122 Goal=   None    Shift=    0.000
 RMSDP=9.91D-06 MaxDP=6.56D-04 DE=-5.48D-05 OVMax= 1.20D-03

 Cycle   8  Pass 1  IDiag  1:
 RMSU=  5.84D-06    CP:  9.93D-01  9.33D-01  6.08D-01  7.52D-01  7.38D-01
                    CP:  6.14D-01  7.90D-01
 E= -769.590346635365     Delta-E=       -0.000001522539 Rises=F Damp=F
 DIIS: error= 6.50D-05 at cycle   8 NSaved=   8.
 NSaved= 8 IEnMin= 8 EnMin= -769.590346635365     IErMin= 8 ErrMin= 6.50D-05
 ErrMax= 6.50D-05 EMaxC= 1.00D-01 BMatC= 3.95D-07 BMatP= 1.67D-06
 IDIUse=1 WtCom= 1.00D+00 WtEn= 0.00D+00
 Coeff-Com: -0.311D-03 0.153D-03 0.303D-02 0.835D-02 0.327D-01 0.670D-01
 Coeff-Com:  0.340D+00 0.549D+00
 Coeff:     -0.311D-03 0.153D-03 0.303D-02 0.835D-02 0.327D-01 0.670D-01
 Coeff:      0.340D+00 0.549D+00
 Gap=     0.122 Goal=   None    Shift=    0.000
 RMSDP=5.32D-06 MaxDP=3.81D-04 DE=-1.52D-06 OVMax= 4.23D-04

 Cycle   9  Pass 1  IDiag  1:
 RMSU=  2.21D-06    CP:  9.93D-01  9.33D-01  6.08D-01  7.54D-01  7.38D-01
                    CP:  6.11D-01  8.37D-01  5.58D-01
 E= -769.590347060566     Delta-E=       -0.000000425201 Rises=F Damp=F
 DIIS: error= 1.24D-05 at cycle   9 NSaved=   9.
 NSaved= 9 IEnMin= 9 EnMin= -769.590347060566     IErMin= 9 ErrMin= 1.24D-05
 ErrMax= 1.24D-05 EMaxC= 1.00D-01 BMatC= 3.91D-08 BMatP= 3.95D-07
 IDIUse=1 WtCom= 1.00D+00 WtEn= 0.00D+00
 Coeff-Com: -0.746D-06-0.216D-03 0.867D-04 0.140D-02 0.779D-02 0.215D-01
 Coeff-Com:  0.165D+00 0.335D+00 0.470D+00
 Coeff:     -0.746D-06-0.216D-03 0.867D-04 0.140D-02 0.779D-02 0.215D-01
 Coeff:      0.165D+00 0.335D+00 0.470D+00
 Gap=     0.122 Goal=   None    Shift=    0.000
 RMSDP=1.35D-06 MaxDP=5.13D-05 DE=-4.25D-07 OVMax= 8.78D-05

 Cycle  10  Pass 1  IDiag  1:
 RMSU=  5.76D-07    CP:  9.93D-01  9.33D-01  6.08D-01  7.54D-01  7.39D-01
                    CP:  6.10D-01  8.34D-01  6.39D-01  7.71D-01
 E= -769.590347102244     Delta-E=       -0.000000041679 Rises=F Damp=F
 DIIS: error= 3.65D-06 at cycle  10 NSaved=  10.
 NSaved=10 IEnMin=10 EnMin= -769.590347102244     IErMin=10 ErrMin= 3.65D-06
 ErrMax= 3.65D-06 EMaxC= 1.00D-01 BMatC= 2.52D-09 BMatP= 3.91D-08
 IDIUse=1 WtCom= 1.00D+00 WtEn= 0.00D+00
 Coeff-Com:  0.324D-04-0.101D-03-0.337D-03-0.391D-03-0.382D-03 0.115D-02
 Coeff-Com:  0.305D-01 0.851D-01 0.234D+00 0.650D+00
 Coeff:      0.324D-04-0.101D-03-0.337D-03-0.391D-03-0.382D-03 0.115D-02
 Coeff:      0.305D-01 0.851D-01 0.234D+00 0.650D+00
 Gap=     0.122 Goal=   None    Shift=    0.000
 RMSDP=6.38D-07 MaxDP=3.53D-05 DE=-4.17D-08 OVMax= 2.36D-05

 Cycle  11  Pass 1  IDiag  1:
 RMSU=  2.57D-07    CP:  9.93D-01  9.33D-01  6.08D-01  7.54D-01  7.39D-01
                    CP:  6.12D-01  8.36D-01  6.54D-01  7.32D-01  6.48D-01
 E= -769.590347104596     Delta-E=       -0.000000002352 Rises=F Damp=F
 DIIS: error= 1.55D-06 at cycle  11 NSaved=  11.
 NSaved=11 IEnMin=11 EnMin= -769.590347104596     IErMin=11 ErrMin= 1.55D-06
 ErrMax= 1.55D-06 EMaxC= 1.00D-01 BMatC= 4.24D-10 BMatP= 2.52D-09
 IDIUse=1 WtCom= 1.00D+00 WtEn= 0.00D+00
 Coeff-Com:  0.178D-04-0.428D-04-0.205D-03-0.315D-03-0.662D-03-0.591D-03
 Coeff-Com:  0.770D-02 0.287D-01 0.110D+00 0.387D+00 0.468D+00
 Coeff:      0.178D-04-0.428D-04-0.205D-03-0.315D-03-0.662D-03-0.591D-03
 Coeff:      0.770D-02 0.287D-01 0.110D+00 0.387D+00 0.468D+00
 Gap=     0.122 Goal=   None    Shift=    0.000
 RMSDP=1.44D-07 MaxDP=6.61D-06 DE=-2.35D-09 OVMax= 1.07D-05

 Cycle  12  Pass 1  IDiag  1:
 RMSU=  6.88D-08    CP:  9.93D-01  9.33D-01  6.08D-01  7.54D-01  7.39D-01
                    CP:  6.12D-01  8.37D-01  6.54D-01  7.40D-01  7.18D-01
                    CP:  8.12D-01
 E= -769.590347105037     Delta-E=       -0.000000000441 Rises=F Damp=F
 DIIS: error= 4.58D-07 at cycle  12 NSaved=  12.
 NSaved=12 IEnMin=12 EnMin= -769.590347105037     IErMin=12 ErrMin= 4.58D-07
 ErrMax= 4.58D-07 EMaxC= 1.00D-01 BMatC= 3.08D-11 BMatP= 4.24D-10
 IDIUse=1 WtCom= 1.00D+00 WtEn= 0.00D+00
 Coeff-Com:  0.421D-05-0.727D-05-0.591D-04-0.108D-03-0.296D-03-0.489D-03
 Coeff-Com: -0.728D-03 0.156D-02 0.226D-01 0.106D+00 0.246D+00 0.625D+00
 Coeff:      0.421D-05-0.727D-05-0.591D-04-0.108D-03-0.296D-03-0.489D-03
 Coeff:     -0.728D-03 0.156D-02 0.226D-01 0.106D+00 0.246D+00 0.625D+00
 Gap=     0.122 Goal=   None    Shift=    0.000
 RMSDP=7.21D-08 MaxDP=3.24D-06 DE=-4.41D-10 OVMax= 2.93D-06

 Cycle  13  Pass 1  IDiag  1:
 RMSU=  2.68D-08    CP:  9.93D-01  9.33D-01  6.08D-01  7.54D-01  7.39D-01
                    CP:  6.12D-01  8.37D-01  6.53D-01  7.48D-01  7.26D-01
                    CP:  8.17D-01  7.29D-01
 E= -769.590347105060     Delta-E=       -0.000000000023 Rises=F Damp=F
 DIIS: error= 1.64D-07 at cycle  13 NSaved=  13.
 NSaved=13 IEnMin=13 EnMin= -769.590347105060     IErMin=13 ErrMin= 1.64D-07
 ErrMax= 1.64D-07 EMaxC= 1.00D-01 BMatC= 7.11D-12 BMatP= 3.08D-11
 IDIUse=1 WtCom= 1.00D+00 WtEn= 0.00D+00
 Coeff-Com:  0.999D-06-0.517D-06-0.190D-04-0.396D-04-0.131D-03-0.246D-03
 Coeff-Com: -0.115D-02-0.178D-02 0.389D-02 0.299D-01 0.109D+00 0.401D+00
 Coeff-Com:  0.460D+00
 Coeff:      0.999D-06-0.517D-06-0.190D-04-0.396D-04-0.131D-03-0.246D-03
 Coeff:     -0.115D-02-0.178D-02 0.389D-02 0.299D-01 0.109D+00 0.401D+00
 Coeff:      0.460D+00
 Gap=     0.122 Goal=   None    Shift=    0.000
 RMSDP=2.27D-08 MaxDP=8.73D-07 DE=-2.27D-11 OVMax= 1.30D-06

 Cycle  14  Pass 1  IDiag  1:
 RMSU=  1.03D-08    CP:  9.93D-01  9.33D-01  6.08D-01  7.54D-01  7.39D-01
                    CP:  6.12D-01  8.37D-01  6.53D-01  7.49D-01  7.26D-01
                    CP:  8.13D-01  7.86D-01  7.01D-01
 E= -769.590347105073     Delta-E=       -0.000000000013 Rises=F Damp=F
 DIIS: error= 4.23D-08 at cycle  14 NSaved=  14.
 NSaved=14 IEnMin=14 EnMin= -769.590347105073     IErMin=14 ErrMin= 4.23D-08
 ErrMax= 4.23D-08 EMaxC= 1.00D-01 BMatC= 4.55D-13 BMatP= 7.11D-12
 IDIUse=1 WtCom= 1.00D+00 WtEn= 0.00D+00
 Coeff-Com: -0.295D-06 0.104D-05 0.212D-05 0.189D-05-0.970D-05-0.247D-04
 Coeff-Com: -0.400D-03-0.119D-02-0.252D-02-0.650D-02 0.698D-03 0.671D-01
 Coeff-Com:  0.219D+00 0.724D+00
 Coeff:     -0.295D-06 0.104D-05 0.212D-05 0.189D-05-0.970D-05-0.247D-04
 Coeff:     -0.400D-03-0.119D-02-0.252D-02-0.650D-02 0.698D-03 0.671D-01
 Coeff:      0.219D+00 0.724D+00
 Gap=     0.122 Goal=   None    Shift=    0.000
 RMSDP=8.01D-09 MaxDP=3.74D-07 DE=-1.27D-11 OVMax= 3.92D-07

 SCF Done:  E(RB3LYP) =  -769.590347105     A.U. after   14 cycles
             Convg  =    0.8009D-08             -V/T =  2.0047
 KE= 7.659908346838D+02 PE=-4.488657822126D+03 EE= 1.601200382274D+03
 Leave Link  502 at Mon Sep 16 12:15:55 2013, MaxMem= 1769472000 cpu:    2367.6
 (Enter /usr/g09/l801.exe)
 Range of M.O.s used for correlation:     1   500
 NBasis=   512 NAE=    66 NBE=    66 NFC=     0 NFV=     0
 NROrb=    500 NOA=    66 NOB=    66 NVA=   434 NVB=   434

 **** Warning!!: The largest alpha MO coefficient is  0.14187368D+03

 Leave Link  801 at Mon Sep 16 12:15:56 2013, MaxMem= 1769472000 cpu:       0.2
 (Enter /usr/g09/l1002.exe)
 Minotr:  Closed shell wavefunction.
          IDoAtm=11111111111111111111111111111111
          Direct CPHF calculation.
          Differentiating once with respect to magnetic field using GIAOs.
          Differentiating once with respect to nuclear magnetic moments.
          Differentiating once with respect to Fermi-contact and electric field gradient.
          Electric field/nuclear overlap derivatives assumed to be zero.
          Using symmetry in CPHF.
          Requested convergence is 1.0D-10 RMS, and 1.0D-09 maximum.
          Secondary convergence is 1.0D-12 RMS, and 1.0D-12 maximum.
          NewPWx=T KeepS1=F KeepF1=F KeepIn=T MapXYZ=F SortEE=F KeepMc=T.
          MDV=    1769471676 using IRadAn=       0.
 Generate precomputed XC quadrature information.
          Solving linear equations simultaneously, MaxMat=       0.
 FoFCou: FMM=F IPFlag=           0 FMFlag=           0 FMFlg1=           0
         NFxFlg=           0 DoJE=F BraDBF=F KetDBF=T FulRan=T
         Omega=  0.000000  0.000000  1.000000  0.000000  0.000000 ICntrl=    6100 IOpCl=  0
         NMat0=    1 NMatS0=    1 NMatT0=    0 NMatD0=    1 NMtDS0=    0 NMtDT0=    0
         I1Cent=           7 NGrid=          32.
 Symmetry not used in FoFCou.
 Integrals replicated using symmetry in FoFDir.
 MinBra= 0 MaxBra= 2 Meth= 1.
 IRaf=       0 NMat=  99 IRICut=     247 DoRegI=T DoRafI=T ISym2E= 2 JSym2E=2.
          There are    99 degrees of freedom in the 1st order CPHF.  IDoFFX=0.
     99 vectors produced by pass  0 Test12= 2.89D-18 1.01D-11 XBig12= 2.03D+03 9.72D+00.
 AX will form    99 AO Fock derivatives at one time.
     99 vectors produced by pass  1 Test12= 2.89D-18 1.01D-11 XBig12= 2.11D+00 3.69D-01.
     99 vectors produced by pass  2 Test12= 2.89D-18 1.01D-11 XBig12= 5.75D-03 2.29D-02.
     99 vectors produced by pass  3 Test12= 2.89D-18 1.01D-11 XBig12= 7.68D-06 3.21D-04.
     99 vectors produced by pass  4 Test12= 2.89D-18 1.01D-11 XBig12= 6.21D-09 1.35D-05.
     99 vectors produced by pass  5 Test12= 2.89D-18 1.01D-11 XBig12= 8.60D-12 7.52D-07.
     84 vectors produced by pass  6 Test12= 2.89D-18 1.01D-11 XBig12= 8.99D-15 1.31D-08.
      4 vectors produced by pass  7 Test12= 2.89D-18 1.01D-11 XBig12= 6.37D-18 2.11D-10.
 Inverted reduced A of dimension   682 with in-core refinement.
 Calculating GIAO nuclear magnetic shielding tensors.
 SCF GIAO Magnetic shielding tensor (ppm):
      1  H    Isotropic =    23.6605   Anisotropy =     8.3492
   XX=    24.8646   YX=     2.0537   ZX=     0.0000
   XY=     2.0217   YY=    28.2748   ZY=     0.0000
   XZ=     0.0000   YZ=     0.0000   ZZ=    17.8421
   Eigenvalues:    17.8421    23.9127    29.2266
      2  C    Isotropic =    48.8191   Anisotropy =   145.3002
   XX=   -21.6401   YX=    42.5034   ZX=     0.0000
   XY=    50.4404   YY=    22.4116   ZY=     0.0000
   XZ=     0.0000   YZ=     0.0000   ZZ=   145.6859
   Eigenvalues:   -51.0417    51.8131   145.6859
      3  C    Isotropic =    49.2784   Anisotropy =   146.9947
   XX=    28.5643   YX=    46.4487   ZX=     0.0000
   XY=    39.4263   YY=   -28.0039   ZY=     0.0000
   XZ=     0.0000   YZ=     0.0000   ZZ=   147.2749
   Eigenvalues:   -51.1359    51.6964   147.2749
      4  C    Isotropic =    47.1220   Anisotropy =   198.9087
   XX=   -14.3304   YX=    20.8731   ZX=     0.0000
   XY=    19.0084   YY=   -24.0313   ZY=     0.0000
   XZ=     0.0000   YZ=     0.0000   ZZ=   179.7279
   Eigenvalues:   -39.7031     1.3414   179.7279
      5  C    Isotropic =    44.8719   Anisotropy =   203.9986
   XX=   -29.3632   YX=    16.5187   ZX=     0.0000
   XY=    14.6822   YY=   -16.8921   ZY=     0.0000
   XZ=     0.0000   YZ=     0.0000   ZZ=   180.8710
   Eigenvalues:   -39.9281    -6.3272   180.8710
      6  H    Isotropic =    23.7526   Anisotropy =     7.8725
   XX=    28.2294   YX=     1.8139   ZX=     0.0000
   XY=     1.7979   YY=    24.7741   ZY=     0.0000
   XZ=     0.0000   YZ=     0.0000   ZZ=    18.2543
   Eigenvalues:    18.2543    24.0025    29.0010
      7  C    Isotropic =    53.7232   Anisotropy =   204.7104
   XX=   -21.9007   YX=    -0.3841   ZX=     0.0000
   XY=    -1.6339   YY=    -7.1266   ZY=     0.0000
   XZ=     0.0000   YZ=     0.0000   ZZ=   190.1967
   Eigenvalues:   -21.9693    -7.0580   190.1967
      8  C    Isotropic =    52.9012   Anisotropy =   132.1743
   XX=   -18.4076   YX=    27.9561   ZX=     0.0000
   XY=    29.8963   YY=    36.0938   ZY=     0.0000
   XZ=     0.0000   YZ=     0.0000   ZZ=   141.0174
   Eigenvalues:   -30.8977    48.5838   141.0174
      9  C    Isotropic =    53.3675   Anisotropy =   157.7374
   XX=    40.9673   YX=    15.3329   ZX=     0.0000
   XY=    18.5849   YY=   -39.3906   ZY=     0.0000
   XZ=     0.0000   YZ=     0.0000   ZZ=   158.5257
   Eigenvalues:   -42.8230    44.3997   158.5257
     10  C    Isotropic =    52.0367   Anisotropy =   208.5604
   XX=   -16.3050   YX=    -3.7834   ZX=     0.0000
   XY=    -1.6882   YY=   -18.6618   ZY=     0.0000
   XZ=     0.0000   YZ=     0.0000   ZZ=   191.0770
   Eigenvalues:   -20.4622   -14.5046   191.0770
     11  C    Isotropic =    49.6936   Anisotropy =   193.2270
   XX=   -18.3877   YX=    -7.4732   ZX=     0.0000
   XY=    -5.1860   YY=   -11.0430   ZY=     0.0000
   XZ=     0.0000   YZ=     0.0000   ZZ=   178.5116
   Eigenvalues:   -22.0331    -7.3976   178.5116
     12  H    Isotropic =    23.1321   Anisotropy =    10.2864
   XX=    24.2768   YX=     2.0180   ZX=     0.0000
   XY=     2.2479   YY=    29.1933   ZY=     0.0000
   XZ=     0.0000   YZ=     0.0000   ZZ=    15.9260
   Eigenvalues:    15.9260    23.4805    29.9897
     13  C    Isotropic =    45.6204   Anisotropy =   214.5112
   XX=   -25.6050   YX=    -1.2104   ZX=     0.0000
   XY=    -0.1916   YY=   -26.1616   ZY=     0.0000
   XZ=     0.0000   YZ=     0.0000   ZZ=   188.6279
   Eigenvalues:   -26.6375   -25.1291   188.6279
     14  C    Isotropic =    51.9062   Anisotropy =   181.1689
   XX=   -15.1097   YX=   -50.3073   ZX=     0.0000
   XY=   -49.0607   YY=    -1.8572   ZY=     0.0000
   XZ=     0.0000   YZ=     0.0000   ZZ=   172.6855
   Eigenvalues:   -58.6074    41.6405   172.6855
     15  H    Isotropic =    23.5977   Anisotropy =     8.0124
   XX=    28.6929   YX=     1.3323   ZX=     0.0000
   XY=     0.8069   YY=    24.2957   ZY=     0.0000
   XZ=     0.0000   YZ=     0.0000   ZZ=    17.8045
   Eigenvalues:    17.8045    24.0493    28.9393
     16  C    Isotropic =    45.5226   Anisotropy =   210.3134
   XX=   -20.6008   YX=     6.6727   ZX=     0.0000
   XY=     7.4113   YY=   -28.5630   ZY=     0.0000
   XZ=     0.0000   YZ=     0.0000   ZZ=   185.7315
   Eigenvalues:   -32.6713   -16.4925   185.7315
     17  C    Isotropic =    48.8207   Anisotropy =   199.8034
   XX=   -22.6396   YX=    -8.7829   ZX=     0.0000
   XY=    -9.5364   YY=   -12.9213   ZY=     0.0000
   XZ=     0.0000   YZ=     0.0000   ZZ=   182.0229
   Eigenvalues:   -28.1492    -7.4117   182.0229
     18  C    Isotropic =    55.7470   Anisotropy =   168.4401
   XX=    29.7776   YX=    38.4876   ZX=     0.0000
   XY=    37.7162   YY=   -30.5771   ZY=     0.0000
   XZ=     0.0000   YZ=     0.0000   ZZ=   168.0404
   Eigenvalues:   -49.0046    48.2051   168.0404
     19  C    Isotropic =    52.6663   Anisotropy =   158.1597
   XX=   -41.9183   YX=    18.8859   ZX=     0.0000
   XY=    14.8996   YY=    41.8111   ZY=     0.0000
   XZ=     0.0000   YZ=     0.0000   ZZ=   158.1061
   Eigenvalues:   -45.1980    45.0909   158.1061
     20  H    Isotropic =    23.6626   Anisotropy =     6.3489
   XX=    26.0485   YX=    -1.6516   ZX=     0.0000
   XY=    -1.5828   YY=    26.4790   ZY=     0.0000
   XZ=     0.0000   YZ=     0.0000   ZZ=    18.4602
   Eigenvalues:    18.4602    24.6323    27.8952
     21  C    Isotropic =    50.1768   Anisotropy =   151.9394
   XX=   -27.8902   YX=    39.2702   ZX=     0.0000
   XY=    42.1580   YY=    26.9508   ZY=     0.0000
   XZ=     0.0000   YZ=     0.0000   ZZ=   151.4697
   Eigenvalues:   -49.5566    48.6172   151.4697
     22  H    Isotropic =    22.4721   Anisotropy =    11.2923
   XX=    28.3751   YX=     2.6239   ZX=     0.0000
   XY=     3.1484   YY=    24.8745   ZY=     0.0000
   XZ=     0.0000   YZ=     0.0000   ZZ=    14.1666
   Eigenvalues:    14.1666    23.2494    30.0003
     23  H    Isotropic =    23.4333   Anisotropy =     8.2235
   XX=    24.2340   YX=     1.0187   ZX=     0.0000
   XY=     1.4514   YY=    28.5899   ZY=     0.0000
   XZ=     0.0000   YZ=     0.0000   ZZ=    17.4761
   Eigenvalues:    17.4761    23.9082    28.9157
     24  H    Isotropic =    23.3027   Anisotropy =     8.6430
   XX=    24.8230   YX=     2.1542   ZX=     0.0000
   XY=     1.8994   YY=    28.0962   ZY=     0.0000
   XZ=     0.0000   YZ=     0.0000   ZZ=    16.9890
   Eigenvalues:    16.9890    23.8545    29.0647
     25  C    Isotropic =    54.7892   Anisotropy =   176.2708
   XX=   -30.1324   YX=    41.8990   ZX=     0.0000
   XY=    38.7569   YY=    22.1969   ZY=     0.0000
   XZ=     0.0000   YZ=     0.0000   ZZ=   172.3031
   Eigenvalues:   -52.0399    44.1044   172.3031
     26  C    Isotropic =    48.2843   Anisotropy =   158.6380
   XX=   -51.1427   YX=    20.4149   ZX=     0.0000
   XY=    13.7217   YY=    41.9526   ZY=     0.0000
   XZ=     0.0000   YZ=     0.0000   ZZ=   154.0430
   Eigenvalues:   -54.1734    44.9833   154.0430
     27  C    Isotropic =    52.0409   Anisotropy =   177.9104
   XX=    35.3905   YX=    26.5096   ZX=     0.0000
   XY=    27.6617   YY=   -49.9156   ZY=     0.0000
   XZ=     0.0000   YZ=     0.0000   ZZ=   170.6479
   Eigenvalues:   -57.7890    43.2638   170.6479
     28  H    Isotropic =    23.8135   Anisotropy =     6.5712
   XX=    27.7812   YX=     1.2002   ZX=     0.0000
   XY=     1.1614   YY=    24.8187   ZY=     0.0000
   XZ=     0.0000   YZ=     0.0000   ZZ=    18.8406
   Eigenvalues:    18.8406    24.4057    28.1943
     29  C    Isotropic =    51.9626   Anisotropy =   179.7711
   XX=   -26.0739   YX=   -48.5886   ZX=     0.0000
   XY=   -45.9870   YY=    10.1517   ZY=     0.0000
   XZ=     0.0000   YZ=     0.0000   ZZ=   171.8100
   Eigenvalues:   -58.5992    42.6769   171.8100
     30  H    Isotropic =    23.8907   Anisotropy =     6.0603
   XX=    25.5383   YX=    -1.6404   ZX=     0.0000
   XY=    -1.5159   YY=    26.8900   ZY=     0.0000
   XZ=     0.0000   YZ=     0.0000   ZZ=    19.2439
   Eigenvalues:    19.2439    24.4974    27.9309
     31  H    Isotropic =    22.4692   Anisotropy =    11.2294
   XX=    24.7652   YX=     3.6108   ZX=     0.0000
   XY=     2.7920   YY=    27.9808   ZY=     0.0000
   XZ=     0.0000   YZ=     0.0000   ZZ=    14.6617
   Eigenvalues:    14.6617    22.7905    29.9555
     32  H    Isotropic =    23.3560   Anisotropy =     8.7374
   XX=    23.7855   YX=     1.3685   ZX=     0.0000
   XY=     1.6859   YY=    28.7487   ZY=     0.0000
   XZ=     0.0000   YZ=     0.0000   ZZ=    17.5339
   Eigenvalues:    17.5339    23.3532    29.1810
 Max diff in PS couplings:  IJMax=     3     2 Diff= 2.57D-10 IJMaxR=    25    21 DiffR= 2.59D-06
          There are   224 degrees of freedom in the 1st order CPHF.  IDoFFX=0.
    192 vectors produced by pass  0 Test12= 2.86D-18 1.00D-11 XBig12= 2.26D+01 2.82D+00.
    192 vectors produced by pass  1 Test12= 2.86D-18 1.00D-11 XBig12= 1.12D-01 1.05D-01.
    192 vectors produced by pass  2 Test12= 2.86D-18 1.00D-11 XBig12= 1.38D-03 3.15D-03.
    192 vectors produced by pass  3 Test12= 2.86D-18 1.00D-11 XBig12= 2.48D-06 2.03D-04.
    192 vectors produced by pass  4 Test12= 2.86D-18 1.00D-11 XBig12= 2.29D-09 6.31D-06.
    192 vectors produced by pass  5 Test12= 2.86D-18 1.00D-11 XBig12= 1.70D-12 1.02D-07.
    192 vectors produced by pass  6 Test12= 2.86D-18 1.00D-11 XBig12= 9.17D-16 3.21D-09.
    192 vectors produced by pass  7 Test12= 2.86D-18 1.00D-11 XBig12= 1.64D-17 5.64D-10.
    143 vectors produced by pass  8 Test12= 2.86D-18 1.00D-11 XBig12= 1.48D-18 1.21D-10.
 Inverted reduced A of dimension  1679 with in-core refinement.
 Max diff in FC couplings:  IJMax=    29    17 Diff= 7.44D-07 IJMaxR=    18    14 DiffR= 1.34D-04
 Max diff in SD couplings:  IJMax=    29    25 Diff= 2.58D-09 IJMaxR=    23    17 DiffR= 9.60D-05
 There are a total of      262878 grid points.
 ElSum from          density=      264.0026827764
 Fermi Contact (FC) contribution to K (Hz):
                1             2             3             4             5 
      1  0.000000D+00
      2  0.188607D+02  0.000000D+00
      3  0.231089D+00  0.392929D+02  0.000000D+00
      4  0.463083D+00  0.310000D+02 -0.493862D+00  0.000000D+00
      5  0.100506D+01 -0.403185D+00  0.307356D+02  0.320324D+01  0.000000D+00
      6  0.272572D+00  0.239916D+00  0.188535D+02  0.100525D+01  0.429395D+00
      7  0.650575D+00  0.730143D+00  0.208413D+01  0.304430D+02  0.290527D+00
      8  0.636104D+00  0.142927D+01  0.229603D+01  0.373739D+02 -0.552179D+00
      9 -0.251872D-01  0.222088D+01  0.149580D+01 -0.531255D+00  0.357469D+02
     10 -0.110795D+00  0.205577D+01  0.661080D+00  0.303533D+00  0.318368D+02
     11  0.689806D-01  0.133053D+01 -0.385539D+00  0.223458D+00  0.133260D+01
     12 -0.201359D-01  0.816256D+00 -0.738967D-01  0.249991D+00  0.895969D-01
     13 -0.485714D-01  0.237565D+01 -0.196330D-01 -0.101242D+00  0.355125D+00
     14  0.993607D-01 -0.101320D-01  0.236283D+01  0.390611D+00 -0.279871D+00
     15  0.147478D-01 -0.603890D-01  0.749060D+00  0.781834D-01  0.331822D+00
     16  0.597606D-01 -0.384472D+00  0.137515D+01  0.132256D+01  0.137830D+00
     17  0.466215D-01 -0.481708D+00  0.284020D+00  0.241202D+01 -0.644789D-01
     18  0.682736D-01  0.289801D-01  0.238443D+00  0.159005D+01 -0.397554D+00
     19 -0.652297D-01  0.352689D+00 -0.574717D+00 -0.118993D+00  0.288736D+01
     20 -0.538879D-03  0.579472D-01  0.967643D-02 -0.381678D-01  0.878303D+00
     21 -0.315132D-01  0.218962D+00  0.655796D-01 -0.442072D+00  0.142907D+01
     22  0.101615D-02  0.655087D-01 -0.294559D-01  0.853369D-01  0.557691D-01
     23  0.128904D-01 -0.735398D-01  0.991737D-01  0.110614D+00 -0.158455D+00
     24  0.439899D-02 -0.342151D-01  0.705343D-01  0.712380D-01  0.774968D-01
     25 -0.259571D-01  0.262760D+00 -0.216085D+00 -0.436274D+00  0.268232D+00
     26  0.239395D-01 -0.194602D+00  0.231024D+00  0.225774D+01 -0.178745D+00
     27  0.235562D-01 -0.228630D+00  0.199353D+00  0.363248D+00 -0.169282D+00
     28 -0.413564D-02  0.410078D-01 -0.353813D-01 -0.635253D-01  0.328047D-01
     29 -0.237734D-01  0.264428D+00 -0.173706D+00  0.326552D-01  0.179458D+00
     30  0.266148D-02 -0.139248D-01  0.231726D-01  0.740390D-01 -0.215316D-01
     31  0.274844D-02 -0.245255D-01  0.223637D-01  0.439916D-01 -0.229878D-01
     32 -0.380600D-02  0.375478D-01 -0.312011D-01 -0.462721D-01  0.275745D-01
                6             7             8             9            10 
      6  0.000000D+00
      7 -0.108572D+00  0.000000D+00
      8 -0.424250D-01  0.304424D+00  0.000000D+00
      9  0.611640D+00  0.136940D+01  0.391070D+00  0.000000D+00
     10  0.646025D+00  0.329624D+02  0.136853D+01  0.355583D+00  0.000000D+00
     11  0.522131D-01  0.340885D+02  0.212816D+01 -0.929982D-01  0.314295D+00
     12  0.188129D-01  0.830813D+00  0.185792D+02 -0.715088D-01  0.669025D-01
     13  0.983568D-01  0.261268D+01  0.337648D+02 -0.299965D+00 -0.289516D+00
     14 -0.482141D-01 -0.326936D+00 -0.340536D+00  0.339202D+02  0.288479D+01
     15 -0.170394D-01  0.710312D-01 -0.651598D-01  0.187766D+02  0.788073D+00
     16  0.711034D-01  0.219890D+00 -0.147559D+00  0.297968D+01  0.319016D+02
     17 -0.510243D-01  0.414363D+00  0.242368D+00  0.345720D+00  0.142043D+01
     18 -0.327979D-01  0.490262D+00 -0.545841D+00  0.356265D+00  0.248134D+01
     19  0.494546D-01  0.133763D+01  0.400170D+00 -0.640285D+00  0.360696D+00
     20  0.433183D-02  0.484701D-01  0.330314D-01  0.335340D+00 -0.124930D+00
     21  0.642006D-01  0.241108D+01  0.373507D+00 -0.531146D+00  0.635459D+00
     22  0.355405D-02  0.716956D+00  0.390540D-01 -0.564997D-01 -0.106840D+00
     23 -0.859794D-02  0.690683D-01 -0.473548D-01  0.957795D+00  0.752984D+00
     24  0.363807D-03 -0.128499D+00 -0.713705D-01  0.507657D-01  0.695185D+00
     25  0.368851D-01  0.144720D+01  0.144525D+01 -0.142394D+00  0.384964D-01
     26 -0.238144D-01 -0.421585D+00  0.160575D+01  0.148900D+00  0.169348D+00
     27 -0.347537D-01 -0.382971D-01 -0.507581D+00  0.154646D+00  0.239663D+00
     28  0.643731D-02  0.895052D-01  0.798003D-01 -0.239661D-01 -0.101786D-01
     29  0.346147D-01  0.286930D+00  0.221261D+01 -0.146299D+00 -0.158309D+00
     30 -0.291936D-02 -0.408811D-01 -0.801801D-02  0.184091D-01  0.232539D-01
     31 -0.376980D-02 -0.636082D-01  0.986851D-01  0.182074D-01  0.252441D-01
     32  0.549930D-02  0.496694D-01  0.705896D+00 -0.225180D-01 -0.208436D-01
               11            12            13            14            15 
     11  0.000000D+00
     12 -0.156958D+00  0.000000D+00
     13  0.412771D+00  0.334581D+00  0.000000D+00
     14  0.359338D+00  0.658760D-01  0.278790D+00  0.000000D+00
     15  0.103732D+00  0.130229D-01  0.515133D-01  0.280218D+00  0.000000D+00
     16  0.279378D+01  0.111619D+00  0.342542D+00 -0.253022D+00 -0.135929D+00
     17  0.337881D+02  0.725155D+00  0.311495D+02 -0.263337D+00 -0.307087D-01
     18  0.328259D+02  0.876608D-01  0.150178D+01 -0.634153D-03 -0.662338D-01
     19 -0.508049D+00 -0.532994D-01 -0.281071D+00  0.351396D+02  0.918343D+00
     20 -0.441767D-01 -0.586127D-02 -0.288162D-01  0.188652D+02  0.219696D+00
     21 -0.206761D+00 -0.786579D-01 -0.107817D+00  0.226775D+01  0.838952D-01
     22  0.333842D+00 -0.855571D-02 -0.599033D-01  0.854762D-01  0.106245D-01
     23  0.646906D-01  0.133961D-01  0.490993D-01  0.269592D+00  0.244646D-01
     24  0.962260D+00  0.145207D-01  0.949146D-01 -0.486036D-01 -0.809095D-02
     25  0.834377D+00  0.602015D-01  0.190998D+00  0.166755D+00  0.302738D-01
     26  0.138861D+01  0.721217D+00  0.328895D+02 -0.141739D+00 -0.238800D-01
     27  0.183732D+01  0.669842D-01  0.344806D+01 -0.142755D+00 -0.242988D-01
     28  0.243914D-01 -0.932568D-02 -0.132522D+00  0.232910D-01  0.449884D-02
     29 -0.459058D+00 -0.445299D-01 -0.401699D+00  0.139731D+00  0.238764D-01
     30  0.612821D-01  0.940600D-02  0.932465D+00 -0.179766D-01 -0.271035D-02
     31  0.438267D+00  0.274132D-01  0.732089D+00 -0.176325D-01 -0.285604D-02
     32  0.710677D-01 -0.178779D-01  0.415628D+00  0.209271D-01  0.383375D-02
               16            17            18            19            20 
     16  0.000000D+00
     17 -0.433724D+00  0.000000D+00
     18 -0.392577D+00  0.891660D+00  0.000000D+00
     19  0.344136D+02  0.291820D+00  0.218084D+01  0.000000D+00
     20  0.912392D+00  0.302526D-01  0.656507D-01  0.314361D+00  0.000000D+00
     21  0.316456D+02  0.181988D+01  0.382944D+02  0.152532D+01  0.105748D-01
     22  0.960278D+00  0.411219D+00  0.184735D+02 -0.152967D-01 -0.254708D-03
     23  0.378228D+00 -0.444915D-01 -0.550348D-01  0.188356D+02  0.231433D+00
     24  0.408396D+00  0.228788D-01  0.306798D+00  0.625515D+00  0.590311D-02
     25  0.270033D+00  0.341613D+02  0.256952D+01 -0.157823D+00 -0.168847D-01
     26 -0.164004D+00  0.319808D+00  0.669652D-01  0.145870D+00  0.168781D-01
     27 -0.152500D+00 -0.225846D+00 -0.239872D-01  0.147497D+00  0.160589D-01
     28  0.254272D-01  0.943539D+00  0.286181D-01 -0.234008D-01 -0.225296D-02
     29  0.159270D+00  0.301858D+01  0.273095D+00 -0.141145D+00 -0.160904D-01
     30 -0.201554D-01 -0.137693D+00 -0.201804D-01  0.185409D-01  0.242903D-02
     31 -0.139843D-01  0.337237D+00  0.205162D-01  0.192013D-01  0.225057D-02
     32  0.237730D-01  0.710961D+00  0.600765D-01 -0.208531D-01 -0.220702D-02
               21            22            23            24            25 
     21  0.000000D+00
     22  0.148584D+00  0.000000D+00
     23  0.694177D+00  0.112425D-01  0.000000D+00
     24  0.188205D+02  0.272042D+00 -0.161821D-01  0.000000D+00
     25 -0.101572D-01  0.241710D-01  0.286815D-01  0.293903D-01  0.000000D+00
     26  0.224119D+00  0.207177D-01 -0.230640D-01 -0.157869D-01  0.288167D+01
     27  0.161437D+00  0.178843D-01 -0.251370D-01 -0.265381D-01  0.365478D+02
     28 -0.249952D-01 -0.104340D-02  0.431522D-02  0.449943D-02  0.361874D+00
     29 -0.130906D+00 -0.109495D-01  0.235090D-01  0.246815D-01 -0.562051D+00
     30  0.201665D-01  0.274576D-02 -0.274951D-02 -0.294298D-02  0.850259D+00
     31  0.185122D-01 -0.149359D-01 -0.299748D-02 -0.145290D-02  0.184892D+02
     32 -0.136651D-01 -0.302541D-02  0.367512D-02  0.520765D-02 -0.153463D+00
               26            27            28            29            30 
     26  0.000000D+00
     27 -0.508182D+00  0.000000D+00
     28  0.875077D+00  0.189876D+02  0.000000D+00
     29  0.364391D+02  0.316080D+02  0.326839D+00  0.000000D+00
     30  0.324537D+00  0.346941D+00  0.199051D+00  0.189878D+02  0.000000D+00
     31 -0.152183D+00  0.173347D+00  0.256248D+00  0.981930D+00  0.253386D-01
     32  0.187980D+02  0.100768D+01  0.310509D-01  0.256939D+00  0.243780D+00
               31            32 
     31  0.000000D+00
     32  0.228869D-01  0.000000D+00
 Fermi Contact (FC) contribution to J (Hz):
                1             2             3             4             5 
      1  0.000000D+00
      2  0.147998D+03  0.000000D+00
      3  0.181333D+01  0.775455D+02  0.000000D+00
      4  0.363376D+01  0.611792D+02 -0.974649D+00  0.000000D+00
      5  0.788661D+01 -0.795696D+00  0.606575D+02  0.632168D+01  0.000000D+00
      6  0.850422D+01  0.188260D+01  0.147942D+03  0.788809D+01  0.336942D+01
      7  0.510500D+01  0.144096D+01  0.411307D+01  0.600800D+02  0.573361D+00
      8  0.499145D+01  0.282070D+01  0.453127D+01  0.737584D+02 -0.108974D+01
      9 -0.197641D+00  0.438296D+01  0.295200D+01 -0.104845D+01  0.705473D+02
     10 -0.869399D+00  0.405712D+01  0.130466D+01  0.599030D+00  0.628306D+02
     11  0.541284D+00  0.262583D+01 -0.760872D+00  0.440999D+00  0.262992D+01
     12 -0.628240D+00  0.640508D+01 -0.579860D+00  0.196165D+01  0.703058D+00
     13 -0.381135D+00  0.468840D+01 -0.387463D-01 -0.199804D+00  0.700848D+00
     14  0.779674D+00 -0.199957D-01  0.466311D+01  0.770880D+00 -0.552333D+00
     15  0.460131D+00 -0.473867D+00  0.587780D+01  0.613498D+00  0.260378D+01
     16  0.468936D+00 -0.758764D+00  0.271389D+01  0.261010D+01  0.272011D+00
     17  0.365835D+00 -0.950663D+00  0.560521D+00  0.476019D+01 -0.127251D+00
     18  0.535736D+00  0.571930D-01  0.470574D+00  0.313801D+01 -0.784583D+00
     19 -0.511851D+00  0.696041D+00 -0.113422D+01 -0.234835D+00  0.569827D+01
     20 -0.168130D-01  0.454706D+00  0.759300D-01 -0.299499D+00  0.689196D+01
     21 -0.247281D+00  0.432127D+00  0.129423D+00 -0.872439D+00  0.282030D+01
     22  0.317038D-01  0.514040D+00 -0.231137D+00  0.669630D+00  0.437615D+00
     23  0.402180D+00 -0.577060D+00  0.778206D+00  0.867975D+00 -0.124338D+01
     24  0.137248D+00 -0.268483D+00  0.553476D+00  0.558997D+00  0.608110D+00
     25 -0.203683D+00  0.518564D+00 -0.426450D+00 -0.860997D+00  0.529363D+00
     26  0.187851D+00 -0.384051D+00  0.455932D+00  0.445570D+01 -0.352758D+00
     27  0.184843D+00 -0.451208D+00  0.393428D+00  0.716880D+00 -0.334082D+00
     28 -0.129032D+00  0.321784D+00 -0.277634D+00 -0.498477D+00  0.257415D+00
     29 -0.186548D+00  0.521854D+00 -0.342813D+00  0.644458D-01  0.354165D+00
     30  0.830379D-01 -0.109266D+00  0.181833D+00  0.580977D+00 -0.168956D+00
     31  0.857512D-01 -0.192449D+00  0.175486D+00  0.345197D+00 -0.180383D+00
     32 -0.118747D+00  0.294634D+00 -0.244832D+00 -0.363093D+00  0.216374D+00
                6             7             8             9            10 
      6  0.000000D+00
      7 -0.851957D+00  0.000000D+00
      8 -0.332905D+00  0.600788D+00  0.000000D+00
      9  0.479948D+01  0.270255D+01  0.771787D+00  0.000000D+00
     10  0.506930D+01  0.650521D+02  0.270083D+01  0.701751D+00  0.000000D+00
     11  0.409711D+00  0.672746D+02  0.419998D+01 -0.183534D+00  0.620268D+00
     12  0.586963D+00  0.651931D+01  0.145789D+03 -0.561123D+00  0.524978D+00
     13  0.771796D+00  0.515618D+01  0.666357D+02 -0.591988D+00 -0.571367D+00
     14 -0.378331D+00 -0.645216D+00 -0.672057D+00  0.669424D+02  0.569321D+01
     15 -0.531629D+00  0.557375D+00 -0.511302D+00  0.147338D+03  0.618393D+01
     16  0.557941D+00  0.433959D+00 -0.291212D+00  0.588048D+01  0.629587D+02
     17 -0.400383D+00  0.817756D+00  0.478319D+00  0.682286D+00  0.280325D+01
     18 -0.257362D+00  0.967543D+00 -0.107723D+01  0.703099D+00  0.489699D+01
     19  0.388066D+00  0.263984D+01  0.789745D+00 -0.126362D+01  0.711843D+00
     20  0.135153D+00  0.380340D+00  0.259195D+00  0.263138D+01 -0.980312D+00
     21  0.503776D+00  0.475833D+01  0.737126D+00 -0.104823D+01  0.125409D+01
     22  0.110886D+00  0.562588D+01  0.306453D+00 -0.443348D+00 -0.838366D+00
     23 -0.268255D+00  0.541972D+00 -0.371589D+00  0.751573D+01  0.590859D+01
     24  0.113508D-01 -0.100832D+01 -0.560037D+00  0.398354D+00  0.545505D+01
     25  0.289434D+00  0.285608D+01  0.285223D+01 -0.281017D+00  0.759737D-01
     26 -0.186870D+00 -0.832009D+00  0.316899D+01  0.293858D+00  0.334213D+00
     27 -0.272709D+00 -0.755803D-01 -0.100172D+01  0.305198D+00  0.472980D+00
     28  0.200844D+00  0.702338D+00  0.626186D+00 -0.188060D+00 -0.798705D-01
     29  0.271618D+00  0.566264D+00  0.436664D+01 -0.288725D+00 -0.312428D+00
     30 -0.910839D-01 -0.320790D+00 -0.629165D-01  0.144454D+00  0.182471D+00
     31 -0.117617D+00 -0.499128D+00  0.774372D+00  0.142871D+00  0.198088D+00
     32  0.171578D+00  0.389751D+00  0.553910D+01 -0.176697D+00 -0.163558D+00
               11            12            13            14            15 
     11  0.000000D+00
     12 -0.123164D+01  0.000000D+00
     13  0.814613D+00  0.262542D+01  0.000000D+00
     14  0.709162D+00  0.516923D+00  0.550199D+00  0.000000D+00
     15  0.813975D+00  0.406314D+00  0.404220D+00  0.219884D+01  0.000000D+00
     16  0.551359D+01  0.875861D+00  0.676015D+00 -0.499344D+00 -0.106662D+01
     17  0.666816D+02  0.569022D+01  0.614742D+02 -0.519701D+00 -0.240968D+00
     18  0.647827D+02  0.687866D+00  0.296380D+01 -0.125152D-02 -0.519730D+00
     19 -0.100265D+01 -0.418235D+00 -0.554701D+00  0.693488D+02  0.720615D+01
     20 -0.346650D+00 -0.182871D+00 -0.226118D+00  0.148034D+03  0.685449D+01
     21 -0.408048D+00 -0.617221D+00 -0.212780D+00  0.447546D+01  0.658318D+00
     22  0.261963D+01 -0.266938D+00 -0.470055D+00  0.670723D+00  0.331485D+00
     23  0.507621D+00  0.417958D+00  0.385277D+00  0.211546D+01  0.763294D+00
     24  0.755076D+01  0.453045D+00  0.744785D+00 -0.381388D+00 -0.252437D+00
     25  0.164666D+01  0.472396D+00  0.376940D+00  0.329095D+00  0.237555D+00
     26  0.274046D+01  0.565932D+01  0.649083D+02 -0.279726D+00 -0.187384D+00
     27  0.362599D+01  0.525619D+00  0.680483D+01 -0.281731D+00 -0.190670D+00
     28  0.191397D+00 -0.290961D+00 -0.103989D+01  0.182762D+00  0.140364D+00
     29 -0.905962D+00 -0.349422D+00 -0.792763D+00  0.275763D+00  0.187356D+00
     30  0.480875D+00  0.293467D+00  0.731696D+01 -0.141061D+00 -0.845629D-01
     31  0.343904D+01  0.855289D+00  0.574463D+01 -0.138360D+00 -0.891084D-01
     32  0.557661D+00 -0.557791D+00  0.326139D+01  0.164213D+00  0.119613D+00
               16            17            18            19            20 
     16  0.000000D+00
     17 -0.855965D+00  0.000000D+00
     18 -0.774760D+00  0.175971D+01  0.000000D+00
     19  0.679162D+02  0.575915D+00  0.430394D+01  0.000000D+00
     20  0.715945D+01  0.237389D+00  0.515155D+00  0.246676D+01  0.000000D+00
     21  0.624534D+02  0.359157D+01  0.755749D+02  0.301026D+01  0.829796D-01
     22  0.753521D+01  0.322679D+01  0.144960D+03 -0.120032D+00 -0.794687D-02
     23  0.296792D+01 -0.349120D+00 -0.431853D+00  0.147802D+03  0.722070D+01
     24  0.320464D+01  0.179528D+00  0.240741D+01  0.490835D+01  0.184177D+00
     25  0.532917D+00  0.674182D+02  0.507101D+01 -0.311468D+00 -0.132493D+00
     26 -0.323667D+00  0.631149D+00  0.132157D+00  0.287878D+00  0.132441D+00
     27 -0.300962D+00 -0.445712D+00 -0.473392D-01  0.291090D+00  0.126013D+00
     28  0.199525D+00  0.740386D+01  0.224563D+00 -0.183624D+00 -0.702922D-01
     29  0.314324D+00  0.595724D+01  0.538960D+00 -0.278552D+00 -0.126260D+00
     30 -0.158158D+00 -0.108047D+01 -0.158354D+00  0.145488D+00  0.757855D-01
     31 -0.109733D+00  0.264627D+01  0.160989D+00  0.150671D+00  0.702177D-01
     32  0.186544D+00  0.557884D+01  0.471414D+00 -0.163632D+00 -0.688590D-01
               21            22            23            24            25 
     21  0.000000D+00
     22  0.116592D+01  0.000000D+00
     23  0.544714D+01  0.350765D+00  0.000000D+00
     24  0.147682D+03  0.848770D+01 -0.504879D+00  0.000000D+00
     25 -0.200455D-01  0.189667D+00  0.225061D+00  0.230623D+00  0.000000D+00
     26  0.442304D+00  0.162570D+00 -0.180981D+00 -0.123878D+00  0.568704D+01
     27  0.318599D+00  0.140336D+00 -0.197248D+00 -0.208242D+00  0.721280D+02
     28 -0.196135D+00 -0.325540D-01  0.134635D+00  0.140382D+00  0.283959D+01
     29 -0.258347D+00 -0.859197D-01  0.184473D+00  0.193674D+00 -0.110922D+01
     30  0.158245D+00  0.856677D-01 -0.857846D-01 -0.918208D-01  0.667190D+01
     31  0.145264D+00 -0.465999D+00 -0.935213D-01 -0.453305D-01  0.145083D+03
     32 -0.107229D+00 -0.943926D-01  0.114664D+00  0.162478D+00 -0.120421D+01
               26            27            28            29            30 
     26  0.000000D+00
     27 -0.100291D+01  0.000000D+00
     28  0.686664D+01  0.148994D+03  0.000000D+00
     29  0.719135D+02  0.623792D+02  0.256468D+01  0.000000D+00
     30  0.254661D+01  0.272242D+01  0.621038D+01  0.148995D+03  0.000000D+00
     31 -0.119416D+01  0.136024D+01  0.799494D+01  0.770511D+01  0.790563D+00
     32  0.147506D+03  0.790718D+01  0.968787D+00  0.201618D+01  0.760594D+01
               31            32 
     31  0.000000D+00
     32  0.714071D+00  0.000000D+00
 Spin-dipolar (SD) contribution to K (Hz):
                1             2             3             4             5 
      1  0.000000D+00
      2  0.499505D-01  0.000000D+00
      3 -0.205015D-02  0.139860D+01  0.000000D+00
      4 -0.933472D-03  0.484710D+00 -0.374332D+00  0.000000D+00
      5  0.217901D-02 -0.378253D+00  0.484684D+00  0.245785D+00  0.000000D+00
      6  0.393249D-03 -0.118993D-02  0.493469D-01  0.171545D-02  0.252438D-03
      7  0.502349D-03 -0.186060D+00  0.327345D+00  0.411258D+00 -0.151987D+00
      8 -0.425076D-02 -0.544982D+00  0.876433D+00  0.966596D+00 -0.350614D+00
      9  0.242120D-02  0.681898D+00 -0.411076D+00 -0.263433D+00  0.756077D+00
     10 -0.139804D-02  0.417119D+00 -0.206855D+00 -0.111954D+00  0.452977D+00
     11 -0.164489D-02  0.216064D+00 -0.261245D+00 -0.319420D+00  0.312552D+00
     12  0.180661D-03  0.163457D-02  0.885150D-04 -0.565684D-02  0.626113D-03
     13  0.551947D-02  0.205209D+00 -0.181712D+00 -0.257384D+00  0.126111D+00
     14  0.614250D-03 -0.247790D+00  0.240879D+00  0.150897D+00 -0.370087D+00
     15 -0.937054D-03  0.140614D-02  0.764777D-03 -0.263028D-03 -0.311563D-02
     16  0.942711D-03 -0.191955D+00  0.154063D+00  0.180399D+00 -0.263336D+00
     17 -0.302982D-02 -0.205907D+00  0.306236D+00  0.472957D+00 -0.131715D+00
     18  0.936489D-04 -0.154814D+00  0.135098D+00  0.161655D+00 -0.219567D+00
     19 -0.956980D-03  0.572327D+00 -0.381752D+00 -0.220296D+00  0.892657D+00
     20  0.504745D-03 -0.672655D-02  0.664014D-02  0.214915D-02 -0.688434D-02
     21 -0.197770D-02  0.166252D+00 -0.182890D+00 -0.240631D+00  0.202374D+00
     22 -0.894349D-04 -0.156920D-02  0.704740D-03  0.220702D-02 -0.620929D-03
     23  0.290371D-02 -0.202145D-04  0.225098D-02 -0.164594D-03 -0.904799D-03
     24  0.344344D-03 -0.191796D-02  0.570998D-03  0.159856D-02 -0.146998D-02
     25  0.978852D-03  0.120661D+00 -0.166653D+00 -0.229383D+00  0.917615D-01
     26 -0.750830D-03 -0.172042D+00  0.229592D+00  0.407402D+00 -0.111736D+00
     27 -0.219559D-02 -0.177276D+00  0.275202D+00  0.374085D+00 -0.111662D+00
     28  0.366451D-03  0.177646D-04  0.730853D-03  0.116043D-02 -0.888857D-03
     29 -0.384044D-03  0.111386D+00 -0.143320D+00 -0.202270D+00  0.103234D+00
     30 -0.194972D-03  0.228241D-02 -0.323040D-02 -0.333461D-02  0.121798D-02
     31  0.319771D-03  0.264197D-02 -0.351991D-02 -0.495539D-02  0.123195D-02
     32 -0.883464D-04  0.194177D-02 -0.333256D-02  0.271996D-02  0.645791D-03
                6             7             8             9            10 
      6  0.000000D+00
      7 -0.109973D-02  0.000000D+00
      8  0.376012D-02 -0.397902D+00  0.000000D+00
      9 -0.450301D-02  0.204805D+00  0.611890D+00  0.000000D+00
     10 -0.144654D-02  0.401519D+00  0.196814D+00 -0.305964D+00  0.000000D+00
     11 -0.145336D-03  0.604876D+00  0.960726D+00 -0.263972D+00 -0.202940D+00
     12 -0.122680D-02  0.523483D-03  0.574812D-01 -0.255884D-02 -0.316080D-05
     13  0.951541D-03  0.320399D+00  0.550210D+00 -0.145877D+00 -0.801439D-01
     14  0.480512D-02 -0.148884D+00 -0.265852D+00  0.669245D+00  0.528992D+00
     15  0.512096D-03  0.107078D-02 -0.173112D-02  0.537268D-01 -0.140450D-02
     16 -0.140557D-03 -0.166820D+00 -0.238602D+00  0.694010D+00  0.451735D+00
     17 -0.309903D-03 -0.197441D+00 -0.421497D+00  0.258192D+00  0.104405D+00
     18 -0.825388D-03 -0.280212D+00 -0.368853D+00  0.471154D+00  0.480476D+00
     19 -0.588220D-02  0.171347D+00  0.572272D+00 -0.650589D+00 -0.316262D+00
     20 -0.169612D-03  0.288260D-04 -0.659566D-02  0.510437D-02  0.657107D-03
     21 -0.661717D-03  0.606774D+00  0.651043D+00 -0.354183D+00 -0.248542D+00
     22  0.362158D-03 -0.483153D-02 -0.843706D-02  0.169520D-02  0.198503D-03
     23  0.718440D-03 -0.249154D-03 -0.191289D-02 -0.284242D-02 -0.149173D-02
     24  0.133090D-05 -0.989245D-03 -0.137039D-02 -0.394910D-02 -0.185880D-02
     25  0.959694D-04  0.281479D+00  0.311452D+00 -0.130287D+00 -0.664724D-01
     26  0.429411D-03 -0.185792D+00 -0.435999D+00  0.165942D+00  0.612156D-01
     27  0.363178D-03 -0.165793D+00 -0.403868D+00  0.186942D+00  0.581507D-01
     28  0.151074D-02 -0.142252D-02 -0.622868D-03  0.454093D-03  0.575005D-03
     29 -0.339939D-03  0.234410D+00  0.453250D+00 -0.119580D+00 -0.658177D-01
     30  0.358025D-03  0.138191D-02  0.731205D-02 -0.220863D-02 -0.683556D-04
     31  0.184175D-03  0.422389D-02  0.161442D-02 -0.322444D-02 -0.187587D-02
     32 -0.499797D-03 -0.166149D-02  0.157847D-02 -0.223777D-02  0.356809D-03
               11            12            13            14            15 
     11  0.000000D+00
     12 -0.204324D-02  0.000000D+00
     13 -0.227830D+00 -0.380150D-02  0.000000D+00
     14  0.273943D+00  0.574197D-03  0.117572D+00  0.000000D+00
     15 -0.150335D-02 -0.124705D-02  0.293117D-03 -0.107311D-02  0.000000D+00
     16  0.386587D+00 -0.311249D-03  0.111257D+00 -0.312176D+00 -0.398574D-03
     17  0.463782D+00 -0.107883D-02  0.467791D+00 -0.124064D+00 -0.517732D-03
     18  0.484454D+00  0.231472D-02  0.178601D+00 -0.226556D+00  0.756889D-03
     19 -0.312039D+00 -0.213637D-02 -0.139300D+00  0.807077D+00 -0.500521D-02
     20  0.256152D-02  0.570863D-03  0.148264D-02  0.480419D-01  0.225548D-02
     21 -0.431969D+00 -0.101174D-02 -0.158305D+00  0.309824D+00  0.108747D-02
     22  0.139959D-02  0.427835D-03  0.467224D-02 -0.186702D-02  0.255294D-02
     23 -0.122327D-02  0.251477D-02 -0.804640D-03 -0.207787D-02  0.129152D-02
     24  0.948728D-03  0.328805D-02 -0.228620D-03  0.357620D-02  0.592030D-03
     25 -0.271143D+00 -0.261738D-02 -0.281819D+00  0.965934D-01  0.314628D-03
     26  0.257884D+00 -0.377765D-03  0.480465D+00 -0.953847D-01 -0.207272D-03
     27  0.427396D+00 -0.225589D-02  0.538315D+00 -0.965041D-01 -0.470506D-03
     28  0.444855D-02  0.900440D-03 -0.589606D-03 -0.760874D-03  0.986421D-03
     29 -0.229759D+00  0.214015D-02 -0.279509D+00  0.101488D+00 -0.227093D-03
     30 -0.149773D-02 -0.573879D-03 -0.195451D-02  0.113991D-02  0.308638D-03
     31 -0.368671D-02  0.758543D-03 -0.357144D-02  0.446710D-04  0.257571D-03
     32 -0.300460D-02  0.467234D-03 -0.348056D-02  0.130352D-03 -0.388622D-03
               16            17            18            19            20 
     16  0.000000D+00
     17 -0.143287D+00  0.000000D+00
     18 -0.308474D+00 -0.206274D+00  0.000000D+00
     19  0.592486D+00  0.250664D+00  0.535615D+00  0.000000D+00
     20 -0.422394D-02 -0.224193D-02 -0.501103D-02  0.501320D-02  0.000000D+00
     21  0.446922D+00  0.391043D+00  0.114244D+01 -0.376417D+00  0.639563D-02
     22 -0.309667D-03 -0.439988D-02  0.479553D-01  0.553984D-02  0.475701D-03
     23 -0.276030D-02  0.353431D-05  0.198346D-02  0.544489D-01  0.166094D-02
     24 -0.102637D-02  0.266345D-02 -0.213160D-02 -0.205355D-02 -0.391045D-03
     25  0.101769D+00  0.522111D+00  0.152571D+00 -0.136516D+00  0.139280D-02
     26 -0.885583D-01 -0.328074D+00 -0.108474D+00  0.157096D+00 -0.163831D-02
     27 -0.957306D-01 -0.359698D+00 -0.129987D+00  0.184124D+00 -0.210730D-02
     28 -0.861915D-03 -0.183945D-02 -0.115141D-02  0.518814D-03  0.168190D-03
     29  0.104675D+00  0.572037D+00  0.110659D+00 -0.121052D+00  0.125349D-02
     30  0.898624D-03  0.861777D-03  0.921670D-03 -0.204934D-02  0.558099D-03
     31  0.849254D-03 -0.715274D-03 -0.278512D-02 -0.238030D-02 -0.257133D-03
     32 -0.212550D-03 -0.143171D-02  0.164911D-02 -0.198848D-02  0.201564D-03
               21            22            23            24            25 
     21  0.000000D+00
     22  0.250484D-02  0.000000D+00
     23  0.118033D-03 -0.685832D-03  0.000000D+00
     24  0.510099D-01  0.148040D-02  0.657970D-03  0.000000D+00
     25 -0.155909D+00 -0.338117D-02 -0.501203D-03 -0.669678D-03  0.000000D+00
     26  0.160298D+00 -0.465194D-02 -0.183207D-03 -0.331782D-03  0.107245D+01
     27  0.190897D+00 -0.205786D-03 -0.649782D-03 -0.273746D-03  0.959251D+00
     28  0.764509D-03 -0.620135D-03 -0.574024D-03 -0.568392D-03  0.139216D-02
     29 -0.133450D+00  0.781972D-04 -0.518205D-03 -0.760974D-03 -0.476150D+00
     30 -0.218422D-02 -0.386652D-03  0.187863D-03  0.195165D-03 -0.905783D-02
     31 -0.463086D-03 -0.389695D-02 -0.484908D-03 -0.712120D-03  0.493912D-01
     32 -0.243936D-02  0.274582D-03  0.576063D-03  0.517041D-03 -0.470478D-03
               26            27            28            29            30 
     26  0.000000D+00
     27 -0.527370D+00  0.000000D+00
     28 -0.903407D-02  0.499161D-01  0.000000D+00
     29  0.968110D+00  0.536755D+00  0.224235D-02  0.000000D+00
     30  0.281555D-02  0.341199D-02  0.274925D-02  0.491380D-01  0.000000D+00
     31  0.170340D-02  0.106549D-02  0.179414D-02 -0.306794D-02  0.918271D-03
     32  0.523409D-01 -0.145178D-02  0.942754D-03 -0.224460D-02  0.104863D-02
               31            32 
     31  0.000000D+00
     32  0.513047D-02  0.000000D+00
 Spin-dipolar (SD) contribution to J (Hz):
                1             2             3             4             5 
[...]
 Alpha virt. eigenvalues --    2.78489   2.79421   2.79588   2.81383   2.82045
 Alpha virt. eigenvalues --    2.83369   2.83597   2.84736   2.85245   2.85515
 Alpha virt. eigenvalues --    2.88778   2.89906   2.90952   2.91783   2.92638
 Alpha virt. eigenvalues --    2.93451   2.93647   2.95709   2.98297   3.04330
 Alpha virt. eigenvalues --    3.05529   3.07362   3.09865   3.14115   3.17974
 Alpha virt. eigenvalues --    3.19125   3.21319   3.22338   3.23358   3.26978
 Alpha virt. eigenvalues --    3.29590   3.34552   3.35471   3.38380   3.38726
 Alpha virt. eigenvalues --    3.40925   3.43167   3.44238   3.46474   3.47767
 Alpha virt. eigenvalues --    3.48872   3.52359   3.54299   3.54771   3.56579
 Alpha virt. eigenvalues --    3.59821   3.62347   3.63159   3.65892   3.70789
 Alpha virt. eigenvalues --    3.78813   3.82003   3.91116   4.03129   4.04646
 Alpha virt. eigenvalues --    4.05552   4.09062   4.10466   4.12089   4.20671
 Alpha virt. eigenvalues --    4.24134   4.33669   4.34618   4.59099   4.81337
 Alpha virt. eigenvalues --    4.82381   4.84107   4.85991   4.86981  23.43593
 Alpha virt. eigenvalues --   23.66761  23.78183  23.81636  23.88391  23.91871
 Alpha virt. eigenvalues --   23.93523  23.95625  23.96571  23.98237  23.99555
 Alpha virt. eigenvalues --   24.01437  24.02941  24.06654  24.11558  24.13559
 Alpha virt. eigenvalues --   24.16778  24.18566  24.19410  24.21219
          Condensed to atoms (all electrons):
              1          2          3          4          5          6
     1  H    0.556561   0.347113  -0.031061  -0.075097  -0.024355  -0.008851
     2  C    0.347113   8.617568   1.365788   0.081592  -1.102687  -0.054734
     3  C   -0.031061   1.365788   9.714643  -1.116988  -0.718521   0.364938
     4  C   -0.075097   0.081592  -1.116988   8.589930  -0.501079   0.021831
     5  C   -0.024355  -1.102687  -0.718521  -0.501079   9.637296  -0.082612
     6  H   -0.008851  -0.054734   0.364938   0.021831  -0.082612   0.552465
     7  C   -0.016035   0.198679  -0.222032   1.025963   0.112991  -0.010776
     8  C    0.102087  -0.731248  -0.024503   0.955539  -0.620007   0.002842
     9  C    0.008864   0.133216   0.099372  -0.373658  -1.783103   0.071602
    10  C   -0.026931  -0.036967  -0.941408  -0.385140   1.394751  -0.004057
    11  C   -0.007370  -0.238660  -0.356523   0.537839  -0.087060   0.002341
    12  H    0.002725   0.073721   0.032932  -0.059751   0.006758  -0.000030
    13  C    0.041273  -0.104191   0.176277   0.747196  -0.381816   0.002743
    14  C   -0.000594  -0.221264  -0.597654  -0.324169  -0.149481   0.019954
    15  H   -0.000022   0.032384   0.065871   0.007519  -0.115157   0.002867
    16  C   -0.000899  -0.345138  -0.741675  -0.448750  -0.176692  -0.002176
    17  C    0.011325  -0.638782  -0.170326  -0.203815  -0.280353   0.000165
    18  C   -0.001924  -0.123362  -0.310422  -1.269920  -0.114969  -0.000036
    19  C    0.000006   0.001603   0.262432   0.015762   1.076839   0.003770
    20  H    0.000000   0.001013   0.011671   0.002634   0.024013  -0.000018
    21  C    0.000029  -0.124818  -0.166940  -0.408228  -0.321631  -0.000422
    22  H    0.000000  -0.003717   0.000370  -0.008863   0.001134   0.000000
    23  H    0.000000  -0.001551  -0.007376   0.001226  -0.027211  -0.000001
    24  H    0.000000  -0.000863   0.000067  -0.002098   0.002736   0.000000
    25  C   -0.000351  -0.237880  -0.168330  -0.375612  -0.029830   0.000098
    26  C    0.008243  -0.471839  -0.215698  -0.688500  -0.042897   0.000176
    27  C    0.000247  -0.072968   0.005064  -0.150771  -0.033708  -0.000012
    28  H    0.000000   0.000164   0.000006  -0.000049   0.000068   0.000000
    29  C    0.000463  -0.038159  -0.000603  -0.072645  -0.005940   0.000001
    30  H    0.000000  -0.000012  -0.000003   0.001606   0.000027   0.000000
    31  H    0.000000  -0.000667  -0.000023  -0.006030   0.000413   0.000000
    32  H    0.000014   0.003913  -0.000267   0.031379   0.000059   0.000000
              7          8          9         10         11         12
     1  H   -0.016035   0.102087   0.008864  -0.026931  -0.007370   0.002725
     2  C    0.198679  -0.731248   0.133216  -0.036967  -0.238660   0.073721
     3  C   -0.222032  -0.024503   0.099372  -0.941408  -0.356523   0.032932
     4  C    1.025963   0.955539  -0.373658  -0.385140   0.537839  -0.059751
     5  C    0.112991  -0.620007  -1.783103   1.394751  -0.087060   0.006758
     6  H   -0.010776   0.002842   0.071602  -0.004057   0.002341  -0.000030
     7  C    5.999803   0.075372  -0.390528   0.539499   0.937974   0.011265
     8  C    0.075372   7.035323   0.155684  -0.557183   0.163072   0.340118
     9  C   -0.390528   0.155684   9.324555  -0.769729  -0.041267  -0.000708
    10  C    0.539499  -0.557183  -0.769729   6.292143  -0.169170  -0.001794
    11  C    0.937974   0.163072  -0.041267  -0.169170   8.689395  -0.016694
    12  H    0.011265   0.340118  -0.000708  -0.001794  -0.016694   0.560053
    13  C   -0.167659   1.634030  -0.002636  -0.390887  -0.412828  -0.070955
    14  C   -0.135111  -0.082130   0.418507   0.514030  -0.207892   0.000154
    15  H   -0.005632   0.000490   0.404933   0.011336   0.002957   0.000000
    16  C   -0.231633  -0.172078   0.809538   1.379997  -0.809406   0.002106
    17  C   -0.000812  -0.327676  -0.180143  -0.223907   2.286349  -0.021435
    18  C   -0.230564  -0.277706  -0.068324   0.000697  -0.779795  -0.003002
    19  C   -0.370206  -0.036207  -1.274669  -0.513311  -0.757258   0.000188
    20  H    0.001722   0.000277  -0.041933  -0.006193   0.001670   0.000000
    21  C    0.091633   0.017150  -0.341702   0.142750  -1.115013  -0.000912
    22  H    0.013586   0.001196  -0.000181  -0.021378  -0.001774   0.000001
    23  H   -0.000479  -0.000144  -0.029782   0.010496   0.010839   0.000000
    24  H   -0.019860  -0.000149   0.007806   0.004474  -0.012802   0.000000
    25  C   -0.334223  -0.095838  -0.015456  -0.084385  -1.543940  -0.001109
    26  C   -0.678101  -1.426560   0.019582   0.022812  -0.203093   0.015395
    27  C   -0.068155  -0.037197  -0.009767  -0.065289  -0.220009   0.000933
    28  H    0.003407   0.004190   0.000005  -0.000154  -0.002731  -0.000001
    29  C   -0.075833  -0.192230   0.001260  -0.018478  -0.208540   0.015371
    30  H    0.001501  -0.001109   0.000000   0.000048   0.007698  -0.000021
    31  H    0.002053  -0.000160   0.000108   0.001170  -0.008883   0.000009
    32  H    0.003447   0.061513  -0.000014   0.000370  -0.010591   0.002684
             13         14         15         16         17         18
     1  H    0.041273  -0.000594  -0.000022  -0.000899   0.011325  -0.001924
     2  C   -0.104191  -0.221264   0.032384  -0.345138  -0.638782  -0.123362
     3  C    0.176277  -0.597654   0.065871  -0.741675  -0.170326  -0.310422
     4  C    0.747196  -0.324169   0.007519  -0.448750  -0.203815  -1.269920
     5  C   -0.381816  -0.149481  -0.115157  -0.176692  -0.280353  -0.114969
     6  H    0.002743   0.019954   0.002867  -0.002176   0.000165  -0.000036
     7  C   -0.167659  -0.135111  -0.005632  -0.231633  -0.000812  -0.230564
     8  C    1.634030  -0.082130   0.000490  -0.172078  -0.327676  -0.277706
     9  C   -0.002636   0.418507   0.404933   0.809538  -0.180143  -0.068324
    10  C   -0.390887   0.514030   0.011336   1.379997  -0.223907   0.000697
    11  C   -0.412828  -0.207892   0.002957  -0.809406   2.286349  -0.779795
    12  H   -0.070955   0.000154   0.000000   0.002106  -0.021435  -0.003002
    13  C   12.132681  -0.044588  -0.000104  -0.565568  -0.663661  -2.685211
    14  C   -0.044588   6.724528  -0.034453  -0.067533  -0.041851  -0.080029
    15  H   -0.000104  -0.034453   0.551601  -0.005586   0.000184  -0.000727
    16  C   -0.565568  -0.067533  -0.005586   9.272264  -0.475221  -0.408323
    17  C   -0.663661  -0.041851   0.000184  -0.475221   9.482346  -0.798067
    18  C   -2.685211  -0.080029  -0.000727  -0.408323  -0.798067  10.309485
    19  C   -0.128620   0.531597  -0.026855  -1.780799  -0.099833  -0.003065
    20  H    0.000082   0.354327  -0.007433   0.024796   0.000024   0.001046
    21  C   -0.624899  -0.186392  -0.002111   0.659473  -0.675812   2.049759
    22  H    0.012325  -0.000404   0.000000  -0.024521  -0.007729   0.367617
    23  H   -0.000026  -0.020991  -0.000323  -0.104434   0.001532   0.039330
    24  H   -0.001079   0.015721  -0.000001  -0.041945  -0.010680  -0.063660
    25  C   -0.053434   0.005716   0.000059  -0.089302  -1.934798   0.822480
    26  C   -2.981048  -0.010896  -0.000001  -0.002025   1.140509   0.548916
    27  C    0.442122   0.001590   0.000003  -0.005143  -0.606604  -0.261588
    28  H   -0.001634   0.000001   0.000000   0.000059   0.048713   0.008600
    29  C   -0.269264  -0.000388   0.000000  -0.031375  -0.052171  -0.134691
    30  H    0.025792   0.000000   0.000000   0.000102   0.040395   0.002645
    31  H   -0.042073  -0.000187   0.000000  -0.001484   0.039603   0.070997
    32  H   -0.091489   0.000003   0.000000  -0.000386  -0.024043  -0.002631
             19         20         21         22         23         24
     1  H    0.000006   0.000000   0.000029   0.000000   0.000000   0.000000
     2  C    0.001603   0.001013  -0.124818  -0.003717  -0.001551  -0.000863
     3  C    0.262432   0.011671  -0.166940   0.000370  -0.007376   0.000067
     4  C    0.015762   0.002634  -0.408228  -0.008863   0.001226  -0.002098
     5  C    1.076839   0.024013  -0.321631   0.001134  -0.027211   0.002736
     6  H    0.003770  -0.000018  -0.000422   0.000000  -0.000001   0.000000
     7  C   -0.370206   0.001722   0.091633   0.013586  -0.000479  -0.019860
     8  C   -0.036207   0.000277   0.017150   0.001196  -0.000144  -0.000149
     9  C   -1.274669  -0.041933  -0.341702  -0.000181  -0.029782   0.007806
    10  C   -0.513311  -0.006193   0.142750  -0.021378   0.010496   0.004474
    11  C   -0.757258   0.001670  -1.115013  -0.001774   0.010839  -0.012802
    12  H    0.000188   0.000000  -0.000912   0.000001   0.000000   0.000000
    13  C   -0.128620   0.000082  -0.624899   0.012325  -0.000026  -0.001079
    14  C    0.531597   0.354327  -0.186392  -0.000404  -0.020991   0.015721
    15  H   -0.026855  -0.007433  -0.002111   0.000000  -0.000323  -0.000001
    16  C   -1.780799   0.024796   0.659473  -0.024521  -0.104434  -0.041945
    17  C   -0.099833   0.000024  -0.675812  -0.007729   0.001532  -0.010680
    18  C   -0.003065   0.001046   2.049759   0.367617   0.039330  -0.063660
    19  C    9.826427  -0.035898  -0.939390  -0.003842   0.358796   0.069590
    20  H   -0.035898   0.544643   0.005691   0.000000  -0.007785  -0.000017
    21  C   -0.939390   0.005691   7.854916  -0.094904   0.104964   0.383438
    22  H   -0.003842   0.000000  -0.094904   0.570310  -0.000023  -0.009566
    23  H    0.358796  -0.007785   0.104964  -0.000023   0.552442   0.002752
    24  H    0.069590  -0.000017   0.383438  -0.009566   0.002752   0.554916
    25  C    0.015605   0.000020   0.055444   0.065880  -0.000011   0.005689
    26  C    0.012564   0.000003  -0.018118   0.002164  -0.000033   0.000325
    27  C    0.025481   0.000001   0.048792   0.024055  -0.000004   0.000502
    28  H   -0.000002   0.000000   0.001454   0.000002   0.000000   0.000000
    29  C   -0.003381   0.000000  -0.024344   0.002667   0.000002   0.000031
    30  H    0.000003   0.000000   0.000293  -0.000001   0.000000   0.000000
    31  H   -0.000964   0.000000   0.001099  -0.000707   0.000000   0.000025
    32  H   -0.000043   0.000000  -0.000332   0.000001   0.000000   0.000000
             25         26         27         28         29         30
     1  H   -0.000351   0.008243   0.000247   0.000000   0.000463   0.000000
     2  C   -0.237880  -0.471839  -0.072968   0.000164  -0.038159  -0.000012
     3  C   -0.168330  -0.215698   0.005064   0.000006  -0.000603  -0.000003
     4  C   -0.375612  -0.688500  -0.150771  -0.000049  -0.072645   0.001606
     5  C   -0.029830  -0.042897  -0.033708   0.000068  -0.005940   0.000027
     6  H    0.000098   0.000176  -0.000012   0.000000   0.000001   0.000000
     7  C   -0.334223  -0.678101  -0.068155   0.003407  -0.075833   0.001501
     8  C   -0.095838  -1.426560  -0.037197   0.004190  -0.192230  -0.001109
     9  C   -0.015456   0.019582  -0.009767   0.000005   0.001260   0.000000
    10  C   -0.084385   0.022812  -0.065289  -0.000154  -0.018478   0.000048
    11  C   -1.543940  -0.203093  -0.220009  -0.002731  -0.208540   0.007698
    12  H   -0.001109   0.015395   0.000933  -0.000001   0.015371  -0.000021
    13  C   -0.053434  -2.981048   0.442122  -0.001634  -0.269264   0.025792
    14  C    0.005716  -0.010896   0.001590   0.000001  -0.000388   0.000000
    15  H    0.000059  -0.000001   0.000003   0.000000   0.000000   0.000000
    16  C   -0.089302  -0.002025  -0.005143   0.000059  -0.031375   0.000102
    17  C   -1.934798   1.140509  -0.606604   0.048713  -0.052171   0.040395
    18  C    0.822480   0.548916  -0.261588   0.008600  -0.134691   0.002645
    19  C    0.015605   0.012564   0.025481  -0.000002  -0.003381   0.000003
    20  H    0.000020   0.000003   0.000001   0.000000   0.000000   0.000000
    21  C    0.055444  -0.018118   0.048792   0.001454  -0.024344   0.000293
    22  H    0.065880   0.002164   0.024055   0.000002   0.002667  -0.000001
    23  H   -0.000011  -0.000033  -0.000004   0.000000   0.000002   0.000000
    24  H    0.005689   0.000325   0.000502   0.000000   0.000031   0.000000
    25  C    9.596834   1.123570  -0.385225  -0.114055  -0.185895  -0.019830
    26  C    1.123570   9.772502  -0.556665  -0.015917   0.641682  -0.082568
    27  C   -0.385225  -0.556665   7.463901   0.407575   0.768481  -0.010052
    28  H   -0.114055  -0.015917   0.407575   0.545435   0.006965  -0.007104
    29  C   -0.185895   0.641682   0.768481   0.006965   5.799546   0.379869
    30  H   -0.019830  -0.082568  -0.010052  -0.007104   0.379869   0.543267
    31  H    0.386461   0.005169  -0.121476  -0.008768  -0.003356  -0.000318
    32  H    0.011730   0.387605  -0.020975  -0.000302  -0.016324  -0.008124
             31         32
     1  H    0.000000   0.000014
     2  C   -0.000667   0.003913
     3  C   -0.000023  -0.000267
     4  C   -0.006030   0.031379
     5  C    0.000413   0.000059
     6  H    0.000000   0.000000
     7  C    0.002053   0.003447
     8  C   -0.000160   0.061513
     9  C    0.000108  -0.000014
    10  C    0.001170   0.000370
    11  C   -0.008883  -0.010591
    12  H    0.000009   0.002684
    13  C   -0.042073  -0.091489
    14  C   -0.000187   0.000003
    15  H    0.000000   0.000000
    16  C   -0.001484  -0.000386
    17  C    0.039603  -0.024043
    18  C    0.070997  -0.002631
    19  C   -0.000964  -0.000043
    20  H    0.000000   0.000000
    21  C    0.001099  -0.000332
    22  H   -0.000707   0.000001
    23  H    0.000000   0.000000
    24  H    0.000025   0.000000
    25  C    0.386461   0.011730
    26  C    0.005169   0.387605
    27  C   -0.121476  -0.020975
    28  H   -0.008768  -0.000302
    29  C   -0.003356  -0.016324
    30  H   -0.000318  -0.008124
    31  H    0.569451   0.000079
    32  H    0.000079   0.553927
 Mulliken atomic charges:
              1
     1  H    0.114539
     2  C   -0.307243
     3  C   -0.309082
     4  C    0.451148
     5  C    0.342024
     6  H    0.117933
     7  C   -0.061254
     8  C    0.033240
     9  C   -0.131431
    10  C   -0.098214
    11  C    0.571163
    12  H    0.111999
    13  C    0.469149
    14  C   -0.380120
    15  H    0.118202
    16  C    0.383757
    17  C    0.386575
    18  C   -0.603556
    19  C   -0.226322
    20  H    0.125643
    21  C   -0.370916
    22  H    0.116304
    23  H    0.117792
    24  H    0.114647
    25  C   -0.420084
    26  C   -0.307259
    27  C   -0.563141
    28  H    0.124075
    29  C   -0.282724
    30  H    0.125895
    31  H    0.118463
    32  H    0.118798
 Sum of Mulliken atomic charges =   0.00000
 Mulliken charges with hydrogens summed into heavy atoms:
              1
     2  C   -0.192704
     3  C   -0.191149
     4  C    0.451148
     5  C    0.342024
     7  C   -0.061254
     8  C    0.145239
     9  C   -0.013229
    10  C   -0.098214
    11  C    0.571163
    13  C    0.469149
    14  C   -0.254477
    16  C    0.383757
    17  C    0.386575
    18  C   -0.487252
    19  C   -0.108530
    21  C   -0.256269
    25  C   -0.301621
    26  C   -0.188461
    27  C   -0.439066
    29  C   -0.156829
 Sum of Mulliken charges with hydrogens summed into heavy atoms =   0.00000
 Electronic spatial extent (au):  <R**2>=           5266.7990
 Charge=              0.0000 electrons
 Dipole moment (field-independent basis, Debye):
    X=              0.0020    Y=             -0.0117    Z=              0.0000  Tot=              0.0119
 Quadrupole moment (field-independent basis, Debye-Ang):
   XX=           -100.7780   YY=           -100.6585   ZZ=           -124.3665
   XY=              0.1322   XZ=              0.0000   YZ=              0.0000
 Traceless Quadrupole moment (field-independent basis, Debye-Ang):
   XX=              7.8231   YY=              7.9425   ZZ=            -15.7655
   XY=              0.1322   XZ=              0.0000   YZ=              0.0000
 Octapole moment (field-independent basis, Debye-Ang**2):
  XXX=              0.1435  YYY=             -0.8265  ZZZ=              0.0000  XYY=             -0.1076
  XXY=             -0.4458  XXZ=              0.0000  XZZ=              0.0627  YZZ=              0.4663
  YYZ=              0.0000  XYZ=              0.0000
 Hexadecapole moment (field-independent basis, Debye-Ang**3):
 XXXX=          -2768.9396 YYYY=          -3859.9052 ZZZZ=           -148.4081 XXXY=           -799.3609
 XXXZ=              0.0000 YYYX=           -786.5436 YYYZ=              0.0000 ZZZX=              0.0000
 ZZZY=              0.0000 XXYY=          -1111.4587 XXZZ=           -599.9011 YYZZ=           -829.6371
 XXYZ=              0.0000 YYXZ=              0.0000 ZZXY=           -330.2123
 N-N= 1.351876258063D+03 E-N=-4.488657824158D+03  KE= 7.659908346838D+02
 Symmetry A'   KE= 7.445304968800D+02
 Symmetry A"   KE= 2.146033780377D+01
 Calculating spin-rotation constants.
 Leave Link  601 at Mon Sep 16 16:23:24 2013, MaxMem= 1769472000 cpu:     132.2
 (Enter /usr/g09/l9999.exe)
 1\1\GINC-BISHOP\SP\RB3LYP\6-311+G(d,p)\C20H12\JEANNERA\16-Sep-2013\0\\
 #p B3LYP/6-311+G** NMR=SPINSPIN\\empty\\0,1\H,0,-2.700076,-2.544802,0.
 \C,0,-1.658264,-2.23337,0.\C,0,-0.663323,-3.155608,0.\C,0,-1.375307,-0
 .819137,0.\C,0,0.723359,-2.760337,0.\H,0,-0.895016,-4.217998,0.\C,0,0.
 ,-0.384801,0.\C,0,-2.385248,0.126412,0.\C,0,1.761526,-3.697865,0.\C,0,
 1.040838,-1.365452,0.\C,0,0.314656,0.999307,0.\H,0,-3.42311,-0.200507,
 0.\C,0,-2.111109,1.513852,0.\C,0,3.099756,-3.289649,0.\H,0,1.516917,-4
 .757327,0.\C,0,2.40814,-0.959343,0.\C,0,-0.751151,1.971748,0.\C,0,1.69
 754,1.371558,0.\C,0,3.421422,-1.939638,0.\H,0,3.890182,-4.035256,0.\C,
 0,2.696047,0.439848,0.\H,0,1.968273,2.421396,0.\H,0,4.461517,-1.622831
 ,0.\H,0,3.736208,0.756946,0.\C,0,-0.526409,3.374621,0.\C,0,-3.168744,2
 .465311,0.\C,0,-1.572412,4.272257,0.\H,0,-1.366783,5.339166,0.\C,0,-2.
 91045,3.81555,0.\H,0,-3.728004,4.531125,0.\H,0,0.48736,3.759569,0.\H,0
 ,-4.192673,2.098933,0.\\Version=AM64L-G09RevC.01\State=1-A'\HF=-769.59
 03471\RMSD=8.009e-09\Dipole=0.0008004,0.0045959,0.\Quadrupole=5.816246
 7,5.9050373,-11.7212839,-0.098313,0.,0.\PG=CS [SG(C20H12)]\\@


 ... A MOLECULAR SYSTEM ... (PASSES) ... FROM ONE STATE OF EQUILIBRIUM 
 TO ANOTHER ... BY MEANS OF ALL POSSIBLE INTERMEDIATE PATHS, 
 BUT THE PATH MOST ECONOMICAL OF ENERGY WILL BE THE MORE OFTEN TRAVELED.

                      -- HENRY EYRING, 1945
 Job cpu time:  1 days  1 hours 21 minutes 43.7 seconds.
 File lengths (MBytes):  RWF=   2187 Int=      0 D2E=      0 Chk=     15 Scr=      1
 Normal termination of Gaussian 09 at Mon Sep 16 16:23:24 2013.
