 Entering Gaussian System, Link 0=g09
 Initial command:
 /usr/g09/l1.exe "/tmp/gauss.19400/Gau-19454.inp" -scrdir="/tmp/gauss.19400/"
 Entering Link 1 = /usr/g09/l1.exe PID=     19455.
  
 Copyright (c) 1988,1990,1992,1993,1995,1998,2003,2009,2013,
            Gaussian, Inc.  All Rights Reserved.
  
 This is part of the Gaussian(R) 09 program.  It is based on
 the Gaussian(R) 03 system (copyright 2003, Gaussian, Inc.),
 the Gaussian(R) 98 system (copyright 1998, Gaussian, Inc.),
 the Gaussian(R) 94 system (copyright 1995, Gaussian, Inc.),
 the Gaussian 92(TM) system (copyright 1992, Gaussian, Inc.),
 the Gaussian 90(TM) system (copyright 1990, Gaussian, Inc.),
 the Gaussian 88(TM) system (copyright 1988, Gaussian, Inc.),
 the Gaussian 86(TM) system (copyright 1986, Carnegie Mellon
 University), and the Gaussian 82(TM) system (copyright 1983,
 Carnegie Mellon University). Gaussian is a federally registered
 trademark of Gaussian, Inc.
  
 This software contains proprietary and confidential information,
 including trade secrets, belonging to Gaussian, Inc.
  
 This software is provided under written license and may be
 used, copied, transmitted, or stored only in accord with that
 written license.
  
 The following legend is applicable only to US Government
 contracts under FAR:
  
                    RESTRICTED RIGHTS LEGEND
  
 Use, reproduction and disclosure by the US Government is
 subject to restrictions as set forth in subparagraphs (a)
 and (c) of the Commercial Computer Software - Restricted
 Rights clause in FAR 52.227-19.
  
 Gaussian, Inc.
 340 Quinnipiac St., Bldg. 40, Wallingford CT 06492
  
  
 ---------------------------------------------------------------
 Warning -- This program may not be used in any manner that
 competes with the business of Gaussian, Inc. or will provide
 assistance to any competitor of Gaussian, Inc.  The licensee
 of this program is prohibited from giving any competitor of
 Gaussian, Inc. access to this program.  By using this program,
 the user acknowledges that Gaussian, Inc. is engaged in the
 business of creating and licensing software in the field of
 computational chemistry and represents and warrants to the
 licensee that it is not a competitor of Gaussian, Inc. and that
 it will not use this program in any manner prohibited above.
 ---------------------------------------------------------------
  

 Cite this work as:
 Gaussian 09, Revision D.01,
 M. J. Frisch, G. W. Trucks, H. B. Schlegel, G. E. Scuseria, 
 M. A. Robb, J. R. Cheeseman, G. Scalmani, V. Barone, B. Mennucci, 
 G. A. Petersson, H. Nakatsuji, M. Caricato, X. Li, H. P. Hratchian, 
 A. F. Izmaylov, J. Bloino, G. Zheng, J. L. Sonnenberg, M. Hada, 
 M. Ehara, K. Toyota, R. Fukuda, J. Hasegawa, M. Ishida, T. Nakajima, 
 Y. Honda, O. Kitao, H. Nakai, T. Vreven, J. A. Montgomery, Jr., 
 J. E. Peralta, F. Ogliaro, M. Bearpark, J. J. Heyd, E. Brothers, 
 K. N. Kudin, V. N. Staroverov, T. Keith, R. Kobayashi, J. Normand, 
 K. Raghavachari, A. Rendell, J. C. Burant, S. S. Iyengar, J. Tomasi, 
 M. Cossi, N. Rega, J. M. Millam, M. Klene, J. E. Knox, J. B. Cross, 
 V. Bakken, C. Adamo, J. Jaramillo, R. Gomperts, R. E. Stratmann, 
 O. Yazyev, A. J. Austin, R. Cammi, C. Pomelli, J. W. Ochterski, 
 R. L. Martin, K. Morokuma, V. G. Zakrzewski, G. A. Voth, 
 P. Salvador, J. J. Dannenberg, S. Dapprich, A. D. Daniels, 
 O. Farkas, J. B. Foresman, J. V. Ortiz, J. Cioslowski, 
 and D. J. Fox, Gaussian, Inc., Wallingford CT, 2013.
 
 ******************************************
 Gaussian 09:  AS64L-G09RevD.01 24-Apr-2013
                30-Jul-2015 
 ******************************************
 %mem=13500MB
 %nproc=6
 Will use up to    6 processors via shared memory.
 -------------------------------
 #p B3LYP/6-311+G** NMR=SPINSPIN
 -------------------------------
 1/38=1/1;
 2/12=2,17=6,18=5,40=1/2;
 3/5=4,6=6,7=111,11=2,16=1,25=1,30=1,74=-5/1,2,8,3;
 4//1;
 5/5=2,38=5/2;
 8/6=1,10=90,11=11/1;
 10/13=100,45=16,47=1/2;
 6/7=2,8=2,9=2,10=2,28=1/1;
 99/9=1/99;
 Leave Link    1 at Thu Jul 30 05:24:34 2015, MaxMem=  1769472000 cpu:         0.2
 (Enter /usr/g09/l101.exe)
 -----
 empty
 -----
 Symbolic Z-matrix:
 Charge =  0 Multiplicity = 1
 1                     2.60767   3.53882   0.29581 
 6                     2.53452   2.45604   0.22933 
 6                     3.64529   1.67722   0.32777 
 6                     1.236     1.87529   0.06972 
 6                     3.55626   0.26223   0.13793 
 1                     4.62489   2.12064   0.48844 
 6                     1.07372   0.465     0.04612 
 6                     0.09852   2.71792  -0.04983 
 6                     4.73378  -0.52066   0.07905 
 6                     2.27789  -0.35045  -0.07246 
 6                    -0.27267  -0.06264   0.1405 
 6                    -1.16035   2.19929  -0.17466 
 6                     4.68788  -1.8593   -0.25099 
 1                     5.68731  -0.03371   0.27019 
 6                     2.28119  -1.70769  -0.49076 
 6                    -1.39023   0.80012  -0.05682 
 6                     3.44919  -2.4437   -0.5734 
 1                     5.60106  -2.4458   -0.30198 
 1                     3.40749  -3.47645  -0.90902 
 6                    -2.73856   0.25383  -0.07347 
 6                    -0.54134  -1.41497   0.545 
 1                     1.35617  -2.17191  -0.80701 
 1                     0.27944  -2.03558   0.87863 
 6                    -1.80837  -1.91435   0.60747 
 6                    -2.93995  -1.12027   0.25166 
 1                    -1.97473  -2.93333   0.94888 
 6                    -4.2477   -1.66139   0.25161 
 6                    -3.88093   1.02617  -0.40124 
 6                    -5.33867  -0.88135  -0.07085 
 1                    -6.33811  -1.30757  -0.07208 
 6                    -5.14795   0.47421  -0.40458 
 1                    -6.00205   1.09132  -0.6702 
 1                    -4.37638  -2.71018   0.50918 
 1                    -3.77054   2.06854  -0.6791 
 1                     0.24993   3.79457  -0.05967 
 1                    -1.9972    2.87737  -0.2947 
 
 NAtoms=     36 NQM=       36 NQMF=       0 NMMI=      0 NMMIF=      0
                NMic=       0 NMicF=      0.
                    Isotopes and Nuclear Properties:
 (Nuclear quadrupole moments (NQMom) in fm**2, nuclear magnetic moments (NMagM)
  in nuclear magnetons)

  Atom         1           2           3           4           5           6           7           8           9          10
 IAtWgt=           1          12          12          12          12           1          12          12          12          12
 AtmWgt=   1.0078250  12.0000000  12.0000000  12.0000000  12.0000000   1.0078250  12.0000000  12.0000000  12.0000000  12.0000000
 NucSpn=           1           0           0           0           0           1           0           0           0           0
 AtZEff=   0.0000000   0.0000000   0.0000000   0.0000000   0.0000000   0.0000000   0.0000000   0.0000000   0.0000000   0.0000000
 NQMom=    0.0000000   0.0000000   0.0000000   0.0000000   0.0000000   0.0000000   0.0000000   0.0000000   0.0000000   0.0000000
 NMagM=    2.7928460   0.0000000   0.0000000   0.0000000   0.0000000   2.7928460   0.0000000   0.0000000   0.0000000   0.0000000
 AtZNuc=   1.0000000   6.0000000   6.0000000   6.0000000   6.0000000   1.0000000   6.0000000   6.0000000   6.0000000   6.0000000

  Atom        11          12          13          14          15          16          17          18          19          20
 IAtWgt=          12          12          12           1          12          12          12           1           1          12
 AtmWgt=  12.0000000  12.0000000  12.0000000   1.0078250  12.0000000  12.0000000  12.0000000   1.0078250   1.0078250  12.0000000
 NucSpn=           0           0           0           1           0           0           0           1           1           0
 AtZEff=   0.0000000   0.0000000   0.0000000   0.0000000   0.0000000   0.0000000   0.0000000   0.0000000   0.0000000   0.0000000
 NQMom=    0.0000000   0.0000000   0.0000000   0.0000000   0.0000000   0.0000000   0.0000000   0.0000000   0.0000000   0.0000000
 NMagM=    0.0000000   0.0000000   0.0000000   2.7928460   0.0000000   0.0000000   0.0000000   2.7928460   2.7928460   0.0000000
 AtZNuc=   6.0000000   6.0000000   6.0000000   1.0000000   6.0000000   6.0000000   6.0000000   1.0000000   1.0000000   6.0000000

  Atom        21          22          23          24          25          26          27          28          29          30
 IAtWgt=          12           1           1          12          12           1          12          12          12           1
 AtmWgt=  12.0000000   1.0078250   1.0078250  12.0000000  12.0000000   1.0078250  12.0000000  12.0000000  12.0000000   1.0078250
 NucSpn=           0           1           1           0           0           1           0           0           0           1
 AtZEff=   0.0000000   0.0000000   0.0000000   0.0000000   0.0000000   0.0000000   0.0000000   0.0000000   0.0000000   0.0000000
 NQMom=    0.0000000   0.0000000   0.0000000   0.0000000   0.0000000   0.0000000   0.0000000   0.0000000   0.0000000   0.0000000
 NMagM=    0.0000000   2.7928460   2.7928460   0.0000000   0.0000000   2.7928460   0.0000000   0.0000000   0.0000000   2.7928460
 AtZNuc=   6.0000000   1.0000000   1.0000000   6.0000000   6.0000000   1.0000000   6.0000000   6.0000000   6.0000000   1.0000000

  Atom        31          32          33          34          35          36
 IAtWgt=          12           1           1           1           1           1
 AtmWgt=  12.0000000   1.0078250   1.0078250   1.0078250   1.0078250   1.0078250
 NucSpn=           0           1           1           1           1           1
 AtZEff=   0.0000000   0.0000000   0.0000000   0.0000000   0.0000000   0.0000000
 NQMom=    0.0000000   0.0000000   0.0000000   0.0000000   0.0000000   0.0000000
 NMagM=    0.0000000   2.7928460   2.7928460   2.7928460   2.7928460   2.7928460
 AtZNuc=   6.0000000   1.0000000   1.0000000   1.0000000   1.0000000   1.0000000
 Leave Link  101 at Thu Jul 30 05:24:35 2015, MaxMem=  1769472000 cpu:         0.8
 (Enter /usr/g09/l202.exe)
                          Input orientation:                          
 ---------------------------------------------------------------------
 Center     Atomic      Atomic             Coordinates (Angstroms)
 Number     Number       Type             X           Y           Z
 ---------------------------------------------------------------------
      1          1           0        2.607672    3.538824    0.295805
      2          6           0        2.534515    2.456039    0.229328
      3          6           0        3.645287    1.677215    0.327774
      4          6           0        1.235996    1.875290    0.069719
      5          6           0        3.556264    0.262229    0.137932
      6          1           0        4.624888    2.120638    0.488440
      7          6           0        1.073723    0.465001    0.046119
      8          6           0        0.098518    2.717922   -0.049833
      9          6           0        4.733776   -0.520662    0.079054
     10          6           0        2.277889   -0.350447   -0.072459
     11          6           0       -0.272670   -0.062636    0.140501
     12          6           0       -1.160354    2.199288   -0.174662
     13          6           0        4.687876   -1.859298   -0.250993
     14          1           0        5.687306   -0.033705    0.270190
     15          6           0        2.281192   -1.707692   -0.490755
     16          6           0       -1.390232    0.800122   -0.056819
     17          6           0        3.449194   -2.443699   -0.573395
     18          1           0        5.601061   -2.445804   -0.301982
     19          1           0        3.407486   -3.476454   -0.909016
     20          6           0       -2.738558    0.253830   -0.073473
     21          6           0       -0.541344   -1.414974    0.545004
     22          1           0        1.356172   -2.171913   -0.807012
     23          1           0        0.279443   -2.035577    0.878630
     24          6           0       -1.808373   -1.914351    0.607466
     25          6           0       -2.939949   -1.120271    0.251656
     26          1           0       -1.974730   -2.933329    0.948881
     27          6           0       -4.247697   -1.661387    0.251605
     28          6           0       -3.880928    1.026171   -0.401240
     29          6           0       -5.338668   -0.881354   -0.070845
     30          1           0       -6.338111   -1.307572   -0.072083
     31          6           0       -5.147949    0.474209   -0.404579
     32          1           0       -6.002051    1.091324   -0.670196
     33          1           0       -4.376378   -2.710180    0.509182
     34          1           0       -3.770536    2.068543   -0.679103
     35          1           0        0.249927    3.794571   -0.059669
     36          1           0       -1.997197    2.877371   -0.294703
 ---------------------------------------------------------------------
                    Distance matrix (angstroms):
                    1          2          3          4          5
     1  H    0.000000
     2  C    1.087288   0.000000
     3  C    2.131491   1.360174   0.000000
     4  C    2.167938   1.431397   2.431154   0.000000
     5  C    3.414795   2.421802   1.430437   2.826705   0.000000
     6  H    2.473362   2.132907   1.087224   3.423465   2.172210
     7  C    3.444377   2.476229   2.856875   1.419790   2.492500
     8  C    2.662555   2.465886   3.715539   1.420626   4.245196
     9  C    4.587671   3.704063   2.465225   4.239710   1.415245
    10  C    3.920562   2.834307   2.478180   2.461638   1.433136
    11  C    4.614218   3.772519   4.290984   2.456958   3.842692
    12  C    4.026626   3.725746   4.859958   2.430471   5.108463
    13  C    5.810848   4.846628   3.732142   5.095633   2.435710
    14  H    4.716754   4.017535   2.664658   4.847537   2.155553
    15  C    5.315185   4.233125   3.740099   3.774166   2.429330
    16  C    4.858814   4.269377   5.125783   2.840611   4.979466
    17  C    6.103626   5.048607   4.222853   4.895458   2.799910
    18  H    6.718147   5.806381   4.606618   6.153357   3.421719
    19  H    7.162780   6.103473   5.305328   5.857854   3.885355
    20  C    6.285676   5.722474   6.552900   4.294964   6.298377
    21  C    5.875246   4.954322   5.209290   3.769704   4.446247
    22  H    5.949368   4.886761   4.619911   4.142819   3.414436
    23  H    6.069125   5.067697   5.041545   4.106606   4.070148
    24  C    7.023938   6.172842   6.536052   4.890678   5.808381
    25  C    7.244668   6.539132   7.155212   5.142471   6.642667
    26  H    7.956989   7.063734   7.295717   5.848462   6.439031
    27  C    8.604663   7.934235   8.570371   6.527791   8.038347
    28  C    6.992941   6.603033   7.589416   5.208235   7.495741
    29  C    9.100370   8.556594   9.349686   7.130572   8.970573
    30  H   10.180861   9.642568  10.427707   8.216922  10.020331
    31  C    8.368516   7.959255   8.905311   6.553071   8.723679
    32  H    9.002819   8.691637   9.716498   7.317882   9.628180
    33  H    9.374035   8.632994   9.144903   7.260744   8.479378
    34  H    6.617682   6.381933   7.494089   5.065910   7.590278
    35  H    2.398068   2.663556   4.020171   2.161646   4.842350
    36  H    4.689460   4.581325   5.802196   3.404483   6.153622
                    6          7          8          9         10
     6  H    0.000000
     7  C    3.943039   0.000000
     8  C    4.597229   2.456804   0.000000
     9  C    2.675055   3.790594   5.656028   0.000000
    10  C    3.453878   1.459120   3.763650   2.466437   0.000000
    11  C    5.373437   1.449166   2.811674   5.027730   2.575566
    12  C    5.823651   2.836828   1.367232   6.496404   4.281718
    13  C    4.048533   4.307290   6.484876   1.379487   2.848955
    14  H    2.411962   4.645865   6.237661   1.087603   3.441200
    15  C    4.594327   2.542992   4.954244   2.783683   1.420245
    16  C    6.182454   2.488770   2.427835   6.266291   3.844368
    17  C    4.831451   3.806205   6.176041   2.402897   2.450428
    18  H    4.736040   5.393584   7.550207   2.145587   3.935311
    19  H    5.895964   4.679081   7.075151   3.387039   3.427497
    20  C    7.617155   3.819998   3.757833   7.513912   5.052711
    21  C    6.260488   2.528168   4.224226   5.370642   3.076126
    22  H    5.548756   2.785844   5.105438   3.862635   2.169532
    23  H    6.025717   2.752607   4.846703   4.772355   2.781730
    24  C    7.594877   3.779273   5.052349   6.709791   4.427825
    25  C    8.233245   4.320289   4.904580   7.699050   5.284270
    26  H    8.325235   4.653675   6.101838   7.182034   5.079290
    27  C    9.647931   5.734218   6.177281   9.055268   6.663847
    28  C    8.621966   5.006357   4.338375   8.765643   6.319351
    29  C   10.420998   6.553252   6.520600  10.080015   7.635038
    30  H   11.500181   7.621763   7.591791  11.100845   8.668999
    31  C    9.950706   6.237982   5.717124   9.943448   7.478866
    32  H   10.739356   7.139465   6.344101  10.881997   8.425758
    33  H   10.215675   6.324540   7.057017   9.379441   7.084202
    34  H    8.476380   5.154041   3.973318   8.922001   6.542398
    35  H    4.716223   3.431598   1.087288   6.224579   4.614539
    36  H    6.711033   3.919979   2.115988   7.549326   5.361396
                   11         12         13         14         15
    11  C    0.000000
    12  C    2.450227   0.000000
    13  C    5.290395   7.118970   0.000000
    14  H    5.961457   7.216273   2.145526   0.000000
    15  C    3.102725   5.216191   2.423344   3.870773   0.000000
    16  C    1.425564   1.422813   6.637290   7.133985   4.467302
    17  C    4.475643   6.554712   1.407054   3.395416   1.383027
    18  H    6.354211   8.204256   1.086506   2.480532   3.406167
    19  H    5.128273   7.322464   2.165083   4.294255   2.138223
    20  C    2.495303   2.507145   7.723260   8.437770   5.405514
    21  C    1.436881   3.736841   5.308086   6.385883   3.020793
    22  H    2.828419   5.083323   3.392217   4.948840   1.082211
    23  H    2.177650   4.595272   4.554273   5.798506   2.447391
    24  C    2.450569   4.237178   6.552956   7.735360   4.239498
    25  C    2.871467   3.790538   7.680009   8.695430   5.306275
    26  H    3.433856   5.316890   6.854455   8.220416   4.656996
    27  C    4.285929   4.961673   8.951885  10.067471   6.571121
    28  C    3.807691   2.971374   9.042837   9.650143   6.741939
    29  C    5.136078   5.192248  10.075734  11.063766   7.676029
    30  H    6.195533   6.254419  11.041232  12.097543   8.638736
    31  C    4.934943   4.350824  10.110010  10.868120   7.743401
    32  H    5.900395   4.991510  11.097587  11.780963   8.745216
    33  H    4.897533   5.908750   9.135785  10.416255   6.806474
    34  H    4.177169   2.661692   9.335735   9.735059   7.135744
    35  H    3.897592   2.132380   7.190148   6.658047   5.881052
    36  H    3.436137   1.083749   8.193177   8.236811   6.274221
                   16         17         18         19         20
    16  C    0.000000
    17  C    5.848869   0.000000
    18  H    7.711959   2.168917   0.000000
    19  H    6.483320   1.086722   2.498500   0.000000
    20  C    1.454887   6.768667   8.768665   7.237887   0.000000
    21  C    2.447336   4.270068   6.285629   4.685844   2.827573
    22  H    4.115643   2.123484   4.283591   2.433130   4.815509
    23  H    3.421121   3.510308   5.466420   3.880265   3.905920
    24  C    2.825682   5.414485   7.483933   5.651997   2.455592
    25  C    2.486903   6.576726   8.660970   6.869402   1.426331
    26  H    3.910464   5.654734   7.693825   5.719704   3.433165
    27  C    3.784080   7.780409   9.895444   7.952568   2.459925
    28  C    2.524538   8.111740  10.098147   8.582100   1.417375
    29  C    4.291585   8.939798  11.053443   9.161456   2.837115
    30  H    5.378114   9.865771  11.995510  10.019040   3.923616
    31  C    3.787822   9.080394  11.139040   9.437037   2.442000
    32  H    4.661535  10.091174  12.135859  10.462362   3.421675
    33  H    4.643237   7.904591  10.013849   7.949025   3.436175
    34  H    2.768028   8.514458  10.409053   9.073249   2.173695
    35  H    3.414214   7.029597   8.224088   7.972413   4.633366
    36  H    2.177145   7.619359   9.277379   8.364154   2.735238
                   21         22         23         24         25
    21  C    0.000000
    22  H    2.449790   0.000000
    23  H    1.081733   2.004825   0.000000
    24  C    1.363320   3.475835   2.108839   0.000000
    25  C    2.434381   4.547899   3.405197   1.427455   0.000000
    26  H    2.126761   3.841591   2.427383   1.087453   2.169090
    27  C    3.726105   5.725789   4.585649   2.478090   1.415278
    28  C    4.243511   6.149765   5.321753   3.736260   2.432885
    29  C    4.866039   6.857723   5.813511   3.740344   2.432065
    30  H    5.830509   7.777480   6.725018   4.620443   3.418683
    31  C    5.068681   7.033314   6.115737   4.228738   2.801477
    32  H    6.130054   8.050520   7.185648   5.315396   3.888114
    33  H    4.048003   5.906287   4.718925   2.690289   2.158115
    34  H    4.905202   6.654394   5.972660   4.622639   3.424138
    35  H    5.303876   6.114019   5.905244   6.105199   5.867530
    36  H    4.609647   6.082994   5.540475   4.879566   4.143481
                   26         27         28         29         30
    26  H    0.000000
    27  C    2.696370   0.000000
    28  C    4.597179   2.789927   0.000000
    29  C    4.070199   1.379363   2.423390   0.000000
    30  H    4.767027   2.144712   3.404769   1.086531   0.000000
    31  C    4.848968   2.408693   1.382033   1.409008   2.168359
    32  H    5.919338   3.391886   2.139099   2.165816   2.495071
    33  H    2.451743   1.087599   3.877455   2.146401   2.480640
    34  H    5.558235   3.873794   1.084405   3.395719   4.284748
    35  H    7.157577   7.077640   4.984443   7.286755   8.332722
    36  H    5.942326   5.095442   2.643243   5.034238   6.033808
                   31         32         33         34         35
    31  C    0.000000
    32  H    1.086680   0.000000
    33  H    3.401561   4.299439   0.000000
    34  H    2.124743   2.436123   4.961377   0.000000
    35  H    6.346718   6.838678   8.002379   4.418936   0.000000
    36  H    3.964152   4.401115   6.125966   1.986630   2.438455
                   36
    36  H    0.000000
 Stoichiometry    C22H14
 Framework group  C1[X(C22H14)]
 Deg. of freedom   102
 Full point group                 C1      NOp   1
 Largest Abelian subgroup         C1      NOp   1
 Largest concise Abelian subgroup C1      NOp   1
                         Standard orientation:                         
 ---------------------------------------------------------------------
 Center     Atomic      Atomic             Coordinates (Angstroms)
 Number     Number       Type             X           Y           Z
 ---------------------------------------------------------------------
      1          1           0       -2.607672    3.538824   -0.295805
      2          6           0       -2.534515    2.456039   -0.229328
      3          6           0       -3.645287    1.677215   -0.327774
      4          6           0       -1.235996    1.875290   -0.069719
      5          6           0       -3.556264    0.262229   -0.137932
      6          1           0       -4.624888    2.120638   -0.488440
      7          6           0       -1.073723    0.465001   -0.046119
      8          6           0       -0.098518    2.717922    0.049833
      9          6           0       -4.733776   -0.520662   -0.079054
     10          6           0       -2.277889   -0.350447    0.072459
     11          6           0        0.272670   -0.062636   -0.140501
     12          6           0        1.160354    2.199288    0.174662
     13          6           0       -4.687876   -1.859298    0.250993
     14          1           0       -5.687306   -0.033705   -0.270190
     15          6           0       -2.281192   -1.707692    0.490755
     16          6           0        1.390232    0.800122    0.056819
     17          6           0       -3.449194   -2.443699    0.573395
     18          1           0       -5.601061   -2.445804    0.301982
     19          1           0       -3.407486   -3.476454    0.909016
     20          6           0        2.738558    0.253830    0.073473
     21          6           0        0.541344   -1.414974   -0.545004
     22          1           0       -1.356172   -2.171913    0.807012
     23          1           0       -0.279443   -2.035577   -0.878630
     24          6           0        1.808373   -1.914351   -0.607466
     25          6           0        2.939949   -1.120271   -0.251656
     26          1           0        1.974730   -2.933329   -0.948881
     27          6           0        4.247697   -1.661387   -0.251605
     28          6           0        3.880928    1.026171    0.401240
     29          6           0        5.338668   -0.881354    0.070845
     30          1           0        6.338111   -1.307572    0.072083
     31          6           0        5.147949    0.474209    0.404579
     32          1           0        6.002051    1.091324    0.670196
     33          1           0        4.376378   -2.710180   -0.509182
     34          1           0        3.770536    2.068543    0.679103
     35          1           0       -0.249927    3.794571    0.059669
     36          1           0        1.997197    2.877371    0.294703
 ---------------------------------------------------------------------
 Rotational constants (GHZ):      0.7017087      0.1799466      0.1456215
 Leave Link  202 at Thu Jul 30 05:24:35 2015, MaxMem=  1769472000 cpu:         0.0
 (Enter /usr/g09/l301.exe)
 Standard basis: 6-311+G(d,p) (5D, 7F)
 Ernie: Thresh=  0.10000D-02 Tol=  0.10000D-05 Strict=F.
 There are   590 symmetry adapted cartesian basis functions of A   symmetry.
 There are   568 symmetry adapted basis functions of A   symmetry.
   568 basis functions,   904 primitive gaussians,   590 cartesian basis functions
    73 alpha electrons       73 beta electrons
       nuclear repulsion energy      1555.5061137651 Hartrees.
 IExCor=  402 DFT=T Ex+Corr=B3LYP ExCW=0 ScaHFX=  0.200000
 ScaDFX=  0.800000  0.720000  1.000000  0.810000 ScalE2=  1.000000  1.000000
 IRadAn=      0 IRanWt=     -1 IRanGd=            0 ICorTp=0 IEmpDi=  4
 NAtoms=   36 NActive=   36 NUniq=   36 SFac= 1.00D+00 NAtFMM=   60 NAOKFM=F Big=F
 Integral buffers will be    131072 words long.
 Raffenetti 2 integral format.
 Two-electron integral symmetry is turned on.
 Leave Link  301 at Thu Jul 30 05:24:35 2015, MaxMem=  1769472000 cpu:         0.3
 (Enter /usr/g09/l302.exe)
 NPDir=0 NMtPBC=     1 NCelOv=     1 NCel=       1 NClECP=     1 NCelD=      1
         NCelK=      1 NCelE2=     1 NClLst=     1 CellRange=     0.0.
 One-electron integrals computed using PRISM.
 NBasis=   568 RedAO= T EigKep=  1.24D-06  NBF=   568
 NBsUse=   557 1.00D-06 EigRej=  6.63D-07 NBFU=   557
 Precomputing XC quadrature grid using
 IXCGrd= 4 IRadAn=           0 IRanWt=          -1 IRanGd=           0 AccXCQ= 0.00D+00.
 Generated NRdTot=       0 NPtTot=           0 NUsed=           0 NTot=          32
 NSgBfM=   585   585   585   585   585 MxSgAt=    36 MxSgA2=    36.
 Leave Link  302 at Thu Jul 30 05:24:36 2015, MaxMem=  1769472000 cpu:         6.7
 (Enter /usr/g09/l308.exe)
 Leave Link  308 at Thu Jul 30 05:24:36 2015, MaxMem=  1769472000 cpu:         1.0
 (Enter /usr/g09/l303.exe)
 DipDrv:  MaxL=1.
 Leave Link  303 at Thu Jul 30 05:24:36 2015, MaxMem=  1769472000 cpu:         1.0
 (Enter /usr/g09/l401.exe)
 ExpMin= 4.38D-02 ExpMax= 4.56D+03 ExpMxC= 6.82D+02 IAcc=2 IRadAn=         4 AccDes= 0.00D+00
 Harris functional with IExCor=  402 and IRadAn=       4 diagonalized for initial guess.
 HarFok:  IExCor=  402 AccDes= 0.00D+00 IRadAn=         4 IDoV= 1 UseB2=F ITyADJ=14
 ICtDFT=  3500011 ScaDFX=  1.000000  1.000000  1.000000  1.000000
 FoFCou: FMM=F IPFlag=           0 FMFlag=      100000 FMFlg1=           0
         NFxFlg=           0 DoJE=T BraDBF=F KetDBF=T FulRan=T
         wScrn=  0.000000 ICntrl=     500 IOpCl=  0 I1Cent=   200000004 NGrid=           0
         NMat0=    1 NMatS0=      1 NMatT0=    0 NMatD0=    1 NMtDS0=    0 NMtDT0=    0
 Petite list used in FoFCou.
 Harris En= -847.046139261438    
 JPrj=0 DoOrth=F DoCkMO=F.
 Leave Link  401 at Thu Jul 30 05:24:40 2015, MaxMem=  1769472000 cpu:        26.1
 (Enter /usr/g09/l502.exe)
 Closed shell SCF:
 Using DIIS extrapolation, IDIIS=  1040.
 Integral symmetry usage will be decided dynamically.
 IVT=     1070758 IEndB=     1070758 NGot=  1769472000 MDV=  1768766573
 LenX=  1768766573 LenY=  1768417883
 Requested convergence on RMS density matrix=1.00D-08 within 128 cycles.
 Requested convergence on MAX density matrix=1.00D-06.
 Requested convergence on             energy=1.00D-06.
 No special actions if energy rises.
 Fock matrices will be formed incrementally for  20 cycles.

 Cycle   1  Pass 1  IDiag  1:
 FoFJK:  IHMeth= 1 ICntrl=       0 DoSepK=F KAlg= 0 I1Cent=   0 FoldK=F
 IRaf= 770000000 NMat=   1 IRICut=       1 DoRegI=T DoRafI=F ISym2E= 0.
 FoFCou: FMM=F IPFlag=           0 FMFlag=      100000 FMFlg1=           0
         NFxFlg=           0 DoJE=F BraDBF=F KetDBF=F FulRan=T
         wScrn=  0.000000 ICntrl=       0 IOpCl=  0 I1Cent=           0 NGrid=           0
         NMat0=    1 NMatS0=      1 NMatT0=    0 NMatD0=    1 NMtDS0=    0 NMtDT0=    0
 Symmetry not used in FoFCou.
 E= -846.560507905769    
 DIIS: error= 2.21D-02 at cycle   1 NSaved=   1.
 NSaved= 1 IEnMin= 1 EnMin= -846.560507905769     IErMin= 1 ErrMin= 2.21D-02
 ErrMax= 2.21D-02  0.00D+00 EMaxC= 1.00D-01 BMatC= 4.57D-01 BMatP= 4.57D-01
 IDIUse=3 WtCom= 7.79D-01 WtEn= 2.21D-01
 Coeff-Com:  0.100D+01
 Coeff-En:   0.100D+01
 Coeff:      0.100D+01
 Gap=     0.156 Goal=   None    Shift=    0.000
 GapD=    0.156 DampG=1.000 DampE=0.500 DampFc=0.5000 IDamp=-1.
 Damping current iteration by 5.00D-01
 RMSDP=2.66D-02 MaxDP=1.97D+00              OVMax= 1.76D-01

 Cycle   2  Pass 1  IDiag  1:
 RMSU=  1.04D-02    CP:  1.17D+00
 E= -846.775991330435     Delta-E=       -0.215483424666 Rises=F Damp=T
 DIIS: error= 4.32D-03 at cycle   2 NSaved=   2.
 NSaved= 2 IEnMin= 2 EnMin= -846.775991330435     IErMin= 2 ErrMin= 4.32D-03
 ErrMax= 4.32D-03  0.00D+00 EMaxC= 1.00D-01 BMatC= 2.71D-02 BMatP= 4.57D-01
 IDIUse=3 WtCom= 9.57D-01 WtEn= 4.32D-02
 Coeff-Com: -0.520D-01 0.105D+01
 Coeff-En:   0.000D+00 0.100D+01
 Coeff:     -0.497D-01 0.105D+01
 Gap=     0.225 Goal=   None    Shift=    0.000
 RMSDP=1.27D-02 MaxDP=9.13D-01 DE=-2.15D-01 OVMax= 1.07D-01

 Cycle   3  Pass 1  IDiag  1:
 RMSU=  5.78D-03    CP:  1.01D+00  2.21D-01
 E= -846.995543652616     Delta-E=       -0.219552322181 Rises=F Damp=F
 DIIS: error= 5.22D-03 at cycle   3 NSaved=   3.
 NSaved= 3 IEnMin= 3 EnMin= -846.995543652616     IErMin= 2 ErrMin= 4.32D-03
 ErrMax= 5.22D-03  0.00D+00 EMaxC= 1.00D-01 BMatC= 1.68D-02 BMatP= 2.71D-02
 IDIUse=3 WtCom= 9.48D-01 WtEn= 5.22D-02
 Coeff-Com: -0.865D-01 0.473D+00 0.613D+00
 Coeff-En:   0.000D+00 0.000D+00 0.100D+01
 Coeff:     -0.820D-01 0.448D+00 0.634D+00
 Gap=     0.158 Goal=   None    Shift=    0.000
 RMSDP=6.48D-03 MaxDP=4.40D-01 DE=-2.20D-01 OVMax= 6.50D-02

 Cycle   4  Pass 1  IDiag  1:
 RMSU=  4.84D-03    CP:  1.05D+00  4.38D-01  4.47D-01
 E= -847.002487804106     Delta-E=       -0.006944151490 Rises=F Damp=F
 DIIS: error= 5.32D-03 at cycle   4 NSaved=   4.
 NSaved= 4 IEnMin= 4 EnMin= -847.002487804106     IErMin= 2 ErrMin= 4.32D-03
 ErrMax= 5.32D-03  0.00D+00 EMaxC= 1.00D-01 BMatC= 9.06D-03 BMatP= 1.68D-02
 IDIUse=3 WtCom= 9.47D-01 WtEn= 5.32D-02
 Coeff-Com: -0.551D-01 0.202D+00 0.451D+00 0.402D+00
 Coeff-En:   0.000D+00 0.000D+00 0.394D+00 0.606D+00
 Coeff:     -0.522D-01 0.192D+00 0.448D+00 0.413D+00
 Gap=     0.155 Goal=   None    Shift=    0.000
 RMSDP=3.81D-03 MaxDP=2.17D-01 DE=-6.94D-03 OVMax= 4.00D-02

 Cycle   5  Pass 1  IDiag  1:
 RMSU=  2.09D-03    CP:  1.02D+00  4.18D-01  5.78D-01  4.06D-01
 E= -847.012934339267     Delta-E=       -0.010446535161 Rises=F Damp=F
 DIIS: error= 8.03D-04 at cycle   5 NSaved=   5.
 NSaved= 5 IEnMin= 5 EnMin= -847.012934339267     IErMin= 5 ErrMin= 8.03D-04
 ErrMax= 8.03D-04  0.00D+00 EMaxC= 1.00D-01 BMatC= 3.62D-04 BMatP= 9.06D-03
 IDIUse=3 WtCom= 9.92D-01 WtEn= 8.03D-03
 Coeff-Com: -0.187D-01 0.503D-01 0.154D+00 0.220D+00 0.594D+00
 Coeff-En:   0.000D+00 0.000D+00 0.000D+00 0.000D+00 0.100D+01
 Coeff:     -0.186D-01 0.498D-01 0.153D+00 0.218D+00 0.597D+00
 Gap=     0.154 Goal=   None    Shift=    0.000
 RMSDP=5.79D-04 MaxDP=3.19D-02 DE=-1.04D-02 OVMax= 8.27D-03

 Cycle   6  Pass 1  IDiag  1:
 RMSU=  2.30D-04    CP:  1.02D+00  4.06D-01  5.98D-01  4.54D-01  7.88D-01
 E= -847.013286097524     Delta-E=       -0.000351758257 Rises=F Damp=F
 DIIS: error= 2.27D-04 at cycle   6 NSaved=   6.
 NSaved= 6 IEnMin= 6 EnMin= -847.013286097524     IErMin= 6 ErrMin= 2.27D-04
 ErrMax= 2.27D-04  0.00D+00 EMaxC= 1.00D-01 BMatC= 5.57D-05 BMatP= 3.62D-04
 IDIUse=3 WtCom= 9.98D-01 WtEn= 2.27D-03
 Coeff-Com: -0.641D-02 0.121D-01 0.520D-01 0.966D-01 0.367D+00 0.479D+00
 Coeff-En:   0.000D+00 0.000D+00 0.000D+00 0.000D+00 0.890D-01 0.911D+00
 Coeff:     -0.640D-02 0.121D-01 0.519D-01 0.963D-01 0.366D+00 0.480D+00
 Gap=     0.154 Goal=   None    Shift=    0.000
 RMSDP=1.66D-04 MaxDP=9.20D-03 DE=-3.52D-04 OVMax= 2.89D-03

 Cycle   7  Pass 1  IDiag  1:
 RMSU=  6.24D-05    CP:  1.02D+00  4.07D-01  5.95D-01  4.70D-01  7.89D-01
                    CP:  4.45D-01
 E= -847.013342093435     Delta-E=       -0.000055995911 Rises=F Damp=F
 DIIS: error= 7.32D-05 at cycle   7 NSaved=   7.
 NSaved= 7 IEnMin= 7 EnMin= -847.013342093435     IErMin= 7 ErrMin= 7.32D-05
 ErrMax= 7.32D-05  0.00D+00 EMaxC= 1.00D-01 BMatC= 2.49D-06 BMatP= 5.57D-05
 IDIUse=1 WtCom= 1.00D+00 WtEn= 0.00D+00
 Coeff-Com: -0.257D-02 0.406D-02 0.211D-01 0.424D-01 0.174D+00 0.265D+00
 Coeff-Com:  0.497D+00
 Coeff:     -0.257D-02 0.406D-02 0.211D-01 0.424D-01 0.174D+00 0.265D+00
 Coeff:      0.497D+00
 Gap=     0.154 Goal=   None    Shift=    0.000
 RMSDP=4.48D-05 MaxDP=2.56D-03 DE=-5.60D-05 OVMax= 7.82D-04

 Cycle   8  Pass 1  IDiag  1:
 RMSU=  2.00D-05    CP:  1.02D+00  4.07D-01  5.94D-01  4.69D-01  7.92D-01
                    CP:  5.65D-01  5.52D-01
 E= -847.013344460358     Delta-E=       -0.000002366923 Rises=F Damp=F
 DIIS: error= 2.94D-05 at cycle   8 NSaved=   8.
 NSaved= 8 IEnMin= 8 EnMin= -847.013344460358     IErMin= 8 ErrMin= 2.94D-05
 ErrMax= 2.94D-05  0.00D+00 EMaxC= 1.00D-01 BMatC= 4.13D-07 BMatP= 2.49D-06
 IDIUse=1 WtCom= 1.00D+00 WtEn= 0.00D+00
 Coeff-Com: -0.243D-03 0.131D-04 0.219D-02 0.596D-02 0.320D-01 0.653D-01
 Coeff-Com:  0.307D+00 0.588D+00
 Coeff:     -0.243D-03 0.131D-04 0.219D-02 0.596D-02 0.320D-01 0.653D-01
 Coeff:      0.307D+00 0.588D+00
 Gap=     0.154 Goal=   None    Shift=    0.000
 RMSDP=1.75D-05 MaxDP=1.16D-03 DE=-2.37D-06 OVMax= 2.68D-04

 Cycle   9  Pass 1  IDiag  1:
 RMSU=  8.96D-06    CP:  1.02D+00  4.07D-01  5.95D-01  4.69D-01  7.91D-01
                    CP:  5.33D-01  6.60D-01  5.18D-01
 E= -847.013344879783     Delta-E=       -0.000000419425 Rises=F Damp=F
 DIIS: error= 8.02D-06 at cycle   9 NSaved=   9.
 NSaved= 9 IEnMin= 9 EnMin= -847.013344879783     IErMin= 9 ErrMin= 8.02D-06
 ErrMax= 8.02D-06  0.00D+00 EMaxC= 1.00D-01 BMatC= 3.37D-08 BMatP= 4.13D-07
 IDIUse=1 WtCom= 1.00D+00 WtEn= 0.00D+00
 Coeff-Com: -0.257D-05-0.200D-03 0.102D-03 0.104D-02 0.898D-02 0.224D-01
 Coeff-Com:  0.143D+00 0.333D+00 0.492D+00
 Coeff:     -0.257D-05-0.200D-03 0.102D-03 0.104D-02 0.898D-02 0.224D-01
 Coeff:      0.143D+00 0.333D+00 0.492D+00
 Gap=     0.154 Goal=   None    Shift=    0.000
 RMSDP=5.45D-06 MaxDP=3.41D-04 DE=-4.19D-07 OVMax= 9.51D-05

 Cycle  10  Pass 1  IDiag  1:
 RMSU=  2.23D-06    CP:  1.02D+00  4.07D-01  5.95D-01  4.69D-01  7.91D-01
                    CP:  5.34D-01  6.47D-01  6.64D-01  6.30D-01
 E= -847.013344911563     Delta-E=       -0.000000031780 Rises=F Damp=F
 DIIS: error= 3.36D-06 at cycle  10 NSaved=  10.
 NSaved=10 IEnMin=10 EnMin= -847.013344911563     IErMin=10 ErrMin= 3.36D-06
 ErrMax= 3.36D-06  0.00D+00 EMaxC= 1.00D-01 BMatC= 5.41D-09 BMatP= 3.37D-08
 IDIUse=1 WtCom= 1.00D+00 WtEn= 0.00D+00
 Coeff-Com:  0.315D-04-0.107D-03-0.271D-03-0.326D-03 0.460D-03 0.270D-02
 Coeff-Com:  0.325D-01 0.991D-01 0.306D+00 0.560D+00
 Coeff:      0.315D-04-0.107D-03-0.271D-03-0.326D-03 0.460D-03 0.270D-02
 Coeff:      0.325D-01 0.991D-01 0.306D+00 0.560D+00
 Gap=     0.154 Goal=   None    Shift=    0.000
 RMSDP=2.31D-06 MaxDP=1.59D-04 DE=-3.18D-08 OVMax= 2.66D-05

 Cycle  11  Pass 1  IDiag  1:
 RMSU=  9.43D-07    CP:  1.02D+00  4.07D-01  5.95D-01  4.69D-01  7.91D-01
                    CP:  5.34D-01  6.60D-01  6.18D-01  7.08D-01  5.34D-01
 E= -847.013344917168     Delta-E=       -0.000000005605 Rises=F Damp=F
 DIIS: error= 8.33D-07 at cycle  11 NSaved=  11.
 NSaved=11 IEnMin=11 EnMin= -847.013344917168     IErMin=11 ErrMin= 8.33D-07
 ErrMax= 8.33D-07  0.00D+00 EMaxC= 1.00D-01 BMatC= 4.96D-10 BMatP= 5.41D-09
 IDIUse=1 WtCom= 1.00D+00 WtEn= 0.00D+00
 Coeff-Com:  0.158D-04-0.418D-04-0.156D-03-0.245D-03-0.256D-03 0.139D-03
 Coeff-Com:  0.841D-02 0.330D-01 0.142D+00 0.327D+00 0.490D+00
 Coeff:      0.158D-04-0.418D-04-0.156D-03-0.245D-03-0.256D-03 0.139D-03
 Coeff:      0.841D-02 0.330D-01 0.142D+00 0.327D+00 0.490D+00
 Gap=     0.154 Goal=   None    Shift=    0.000
 RMSDP=5.98D-07 MaxDP=3.53D-05 DE=-5.61D-09 OVMax= 9.12D-06

 Cycle  12  Pass 1  IDiag  1:
 RMSU=  2.65D-07    CP:  1.02D+00  4.07D-01  5.95D-01  4.69D-01  7.91D-01
                    CP:  5.34D-01  6.58D-01  6.30D-01  7.04D-01  6.34D-01
                    CP:  6.91D-01
 E= -847.013344917662     Delta-E=       -0.000000000494 Rises=F Damp=F
 DIIS: error= 2.52D-07 at cycle  12 NSaved=  12.
 NSaved=12 IEnMin=12 EnMin= -847.013344917662     IErMin=12 ErrMin= 2.52D-07
 ErrMax= 2.52D-07  0.00D+00 EMaxC= 1.00D-01 BMatC= 4.62D-11 BMatP= 4.96D-10
 IDIUse=1 WtCom= 1.00D+00 WtEn= 0.00D+00
 Coeff-Com:  0.362D-05-0.672D-05-0.477D-04-0.875D-04-0.200D-03-0.321D-03
 Coeff-Com: -0.396D-03 0.290D-02 0.337D-01 0.101D+00 0.274D+00 0.589D+00
 Coeff:      0.362D-05-0.672D-05-0.477D-04-0.875D-04-0.200D-03-0.321D-03
 Coeff:     -0.396D-03 0.290D-02 0.337D-01 0.101D+00 0.274D+00 0.589D+00
 Gap=     0.154 Goal=   None    Shift=    0.000
 RMSDP=1.85D-07 MaxDP=8.88D-06 DE=-4.94D-10 OVMax= 2.47D-06

 Cycle  13  Pass 1  IDiag  1:
 RMSU=  9.14D-08    CP:  1.02D+00  4.07D-01  5.95D-01  4.69D-01  7.91D-01
                    CP:  5.34D-01  6.58D-01  6.28D-01  7.14D-01  6.29D-01
                    CP:  7.07D-01  6.74D-01
 E= -847.013344917712     Delta-E=       -0.000000000050 Rises=F Damp=F
 DIIS: error= 9.79D-08 at cycle  13 NSaved=  13.
 NSaved=13 IEnMin=13 EnMin= -847.013344917712     IErMin=13 ErrMin= 9.79D-08
 ErrMax= 9.79D-08  0.00D+00 EMaxC= 1.00D-01 BMatC= 4.77D-12 BMatP= 4.62D-11
 IDIUse=1 WtCom= 1.00D+00 WtEn= 0.00D+00
 Coeff-Com:  0.979D-06-0.960D-06-0.172D-04-0.335D-04-0.105D-03-0.206D-03
 Coeff-Com: -0.912D-03-0.103D-02 0.854D-02 0.334D-01 0.117D+00 0.326D+00
 Coeff-Com:  0.517D+00
 Coeff:      0.979D-06-0.960D-06-0.172D-04-0.335D-04-0.105D-03-0.206D-03
 Coeff:     -0.912D-03-0.103D-02 0.854D-02 0.334D-01 0.117D+00 0.326D+00
 Coeff:      0.517D+00
 Gap=     0.154 Goal=   None    Shift=    0.000
 RMSDP=7.38D-08 MaxDP=6.18D-06 DE=-5.00D-11 OVMax= 9.34D-07

 Cycle  14  Pass 1  IDiag  1:
 RMSU=  3.79D-08    CP:  1.02D+00  4.07D-01  5.95D-01  4.69D-01  7.91D-01
                    CP:  5.34D-01  6.58D-01  6.28D-01  7.14D-01  6.35D-01
                    CP:  7.27D-01  7.55D-01  6.13D-01
 E= -847.013344917717     Delta-E=       -0.000000000005 Rises=F Damp=F
 DIIS: error= 5.35D-08 at cycle  14 NSaved=  14.
 NSaved=14 IEnMin=14 EnMin= -847.013344917717     IErMin=14 ErrMin= 5.35D-08
 ErrMax= 5.35D-08  0.00D+00 EMaxC= 1.00D-01 BMatC= 7.92D-13 BMatP= 4.77D-12
 IDIUse=1 WtCom= 1.00D+00 WtEn= 0.00D+00
 Coeff-Com: -0.220D-06 0.823D-06 0.493D-06 0.410D-06-0.151D-04-0.428D-04
 Coeff-Com: -0.386D-03-0.117D-02-0.229D-02-0.265D-02 0.275D-02 0.435D-01
 Coeff-Com:  0.300D+00 0.661D+00
 Coeff:     -0.220D-06 0.823D-06 0.493D-06 0.410D-06-0.151D-04-0.428D-04
 Coeff:     -0.386D-03-0.117D-02-0.229D-02-0.265D-02 0.275D-02 0.435D-01
 Coeff:      0.300D+00 0.661D+00
 Gap=     0.154 Goal=   None    Shift=    0.000
 RMSDP=2.76D-08 MaxDP=1.61D-06 DE=-5.00D-12 OVMax= 5.06D-07

 Cycle  15  Pass 1  IDiag  1:
 RMSU=  1.78D-08    CP:  1.02D+00  4.07D-01  5.95D-01  4.69D-01  7.91D-01
                    CP:  5.34D-01  6.58D-01  6.28D-01  7.14D-01  6.37D-01
                    CP:  7.32D-01  7.44D-01  6.93D-01  7.71D-01
 E= -847.013344917724     Delta-E=       -0.000000000006 Rises=F Damp=F
 DIIS: error= 1.78D-08 at cycle  15 NSaved=  15.
 NSaved=15 IEnMin=15 EnMin= -847.013344917724     IErMin=15 ErrMin= 1.78D-08
 ErrMax= 1.78D-08  0.00D+00 EMaxC= 1.00D-01 BMatC= 1.29D-13 BMatP= 7.92D-13
 IDIUse=1 WtCom= 1.00D+00 WtEn= 0.00D+00
 Coeff-Com: -0.189D-06 0.515D-06 0.163D-05 0.284D-05-0.692D-06-0.840D-05
 Coeff-Com: -0.144D-03-0.576D-03-0.188D-02-0.396D-02-0.805D-02-0.386D-02
 Coeff-Com:  0.129D+00 0.392D+00 0.497D+00
 Coeff:     -0.189D-06 0.515D-06 0.163D-05 0.284D-05-0.692D-06-0.840D-05
 Coeff:     -0.144D-03-0.576D-03-0.188D-02-0.396D-02-0.805D-02-0.386D-02
 Coeff:      0.129D+00 0.392D+00 0.497D+00
 Gap=     0.154 Goal=   None    Shift=    0.000
 RMSDP=8.93D-09 MaxDP=4.58D-07 DE=-6.37D-12 OVMax= 1.65D-07

 SCF Done:  E(RB3LYP) =  -847.013344918     A.U. after   15 cycles
            NFock= 15  Conv=0.89D-08     -V/T= 2.0047
 KE= 8.430184411762D+02 PE=-5.075385850189D+03 EE= 1.829847950330D+03
 Leave Link  502 at Thu Jul 30 05:35:23 2015, MaxMem=  1769472000 cpu:      3855.8
 (Enter /usr/g09/l801.exe)
 DoSCS=F DFT=T ScalE2(SS,OS)=  1.000000  1.000000
 Range of M.O.s used for correlation:     1   557
 NBasis=   568 NAE=    73 NBE=    73 NFC=     0 NFV=     0
 NROrb=    557 NOA=    73 NOB=    73 NVA=   484 NVB=   484

 **** Warning!!: The largest alpha MO coefficient is  0.15395236D+03

 Leave Link  801 at Thu Jul 30 05:35:23 2015, MaxMem=  1769472000 cpu:         0.2
 (Enter /usr/g09/l1002.exe)
 Minotr:  Closed shell wavefunction.
          IDoAtm=111111111111111111111111111111111111
          Direct CPHF calculation.
          Differentiating once with respect to magnetic field using GIAOs.
          Differentiating once with respect to nuclear magnetic moments.
          Differentiating once with respect to Fermi-contact and electric field gradient.
          Electric field/nuclear overlap derivatives assumed to be zero.
          Requested convergence is 1.0D-10 RMS, and 1.0D-09 maximum.
          Secondary convergence is 1.0D-12 RMS, and 1.0D-12 maximum.
          NewPWx=T KeepS1=F KeepF1=F KeepIn=T MapXYZ=F SortEE=F KeepMc=T.
          MDV=    1769471079 using IRadAn=       0.
 Using stored XC quadrature information.
          Solving linear equations simultaneously, MaxMat=       0.
 FoFCou: FMM=F IPFlag=           0 FMFlag=      100000 FMFlg1=           0
         NFxFlg=           0 DoJE=F BraDBF=F KetDBF=T FulRan=T
         wScrn=  0.000000 ICntrl=    6100 IOpCl=  0 I1Cent=           7 NGrid=          36
         NMat0=    1 NMatS0=      1 NMatT0=    0 NMatD0=    1 NMtDS0=    0 NMtDT0=    0
 Symmetry not used in FoFCou.
 FoFJK:  IHMeth= 1 ICntrl=    6127 DoSepK=F KAlg= 0 I1Cent=   0 FoldK=F
 IRaf=         1 NMat=   1 IRICut=       1 DoRegI=T DoRafI=F ISym2E= 0.
          There are   111 degrees of freedom in the 1st order CPHF.  IDoFFX=0 NUNeed=   111.
    111 vectors produced by pass  0 Test12= 3.53D-18 1.00D-11 XBig12= 2.45D+03 9.66D+00.
 AX will form   111 AO Fock derivatives at one time.
    111 vectors produced by pass  1 Test12= 3.53D-18 1.00D-11 XBig12= 3.08D+00 3.60D-01.
    111 vectors produced by pass  2 Test12= 3.53D-18 1.00D-11 XBig12= 7.35D-03 1.51D-02.
    111 vectors produced by pass  3 Test12= 3.53D-18 1.00D-11 XBig12= 9.34D-06 2.62D-04.
    111 vectors produced by pass  4 Test12= 3.53D-18 1.00D-11 XBig12= 7.44D-09 6.22D-06.
    111 vectors produced by pass  5 Test12= 3.53D-18 1.00D-11 XBig12= 5.99D-12 1.65D-07.
     97 vectors produced by pass  6 Test12= 3.53D-18 1.00D-11 XBig12= 4.54D-15 4.71D-09.
      5 vectors produced by pass  7 Test12= 3.53D-18 1.00D-11 XBig12= 2.77D-18 1.32D-10.
      5 vectors produced by pass  8 Test12= 3.53D-18 1.00D-11 XBig12= 7.90D-17 7.86D-10.
      5 vectors produced by pass  9 Test12= 3.53D-18 1.00D-11 XBig12= 1.31D-17 3.50D-10.
      5 vectors produced by pass 10 Test12= 3.53D-18 1.00D-11 XBig12= 3.84D-17 6.85D-10.
      5 vectors produced by pass 11 Test12= 3.53D-18 1.00D-11 XBig12= 2.41D-17 5.87D-10.
      5 vectors produced by pass 12 Test12= 3.53D-18 1.00D-11 XBig12= 3.80D-17 4.78D-10.
      5 vectors produced by pass 13 Test12= 3.53D-18 1.00D-11 XBig12= 4.14D-17 4.58D-10.
      5 vectors produced by pass 14 Test12= 3.53D-18 1.00D-11 XBig12= 2.59D-17 3.79D-10.
      5 vectors produced by pass 15 Test12= 3.53D-18 1.00D-11 XBig12= 2.99D-17 4.49D-10.
      5 vectors produced by pass 16 Test12= 3.53D-18 1.00D-11 XBig12= 2.46D-17 3.68D-10.
      5 vectors produced by pass 17 Test12= 3.53D-18 1.00D-11 XBig12= 1.49D-17 3.70D-10.
      5 vectors produced by pass 18 Test12= 3.53D-18 1.00D-11 XBig12= 1.04D-17 2.55D-10.
      5 vectors produced by pass 19 Test12= 3.53D-18 1.00D-11 XBig12= 1.86D-17 3.51D-10.
      5 vectors produced by pass 20 Test12= 3.53D-18 1.00D-11 XBig12= 3.77D-17 4.87D-10.
      5 vectors produced by pass 21 Test12= 3.53D-18 1.00D-11 XBig12= 4.27D-18 1.68D-10.
      5 vectors produced by pass 22 Test12= 3.53D-18 1.00D-11 XBig12= 1.96D-17 4.15D-10.
      5 vectors produced by pass 23 Test12= 3.53D-18 1.00D-11 XBig12= 1.11D-17 2.53D-10.
      5 vectors produced by pass 24 Test12= 3.53D-18 1.00D-11 XBig12= 3.39D-17 5.02D-10.
      5 vectors produced by pass 25 Test12= 3.53D-18 1.00D-11 XBig12= 1.57D-17 3.23D-10.
      5 vectors produced by pass 26 Test12= 3.53D-18 1.00D-11 XBig12= 2.60D-17 3.89D-10.
      5 vectors produced by pass 27 Test12= 3.53D-18 1.00D-11 XBig12= 1.34D-17 2.41D-10.
      5 vectors produced by pass 28 Test12= 3.53D-18 1.00D-11 XBig12= 2.27D-17 3.62D-10.
      5 vectors produced by pass 29 Test12= 3.53D-18 1.00D-11 XBig12= 1.63D-17 3.28D-10.
      5 vectors produced by pass 30 Test12= 3.53D-18 1.00D-11 XBig12= 1.84D-17 3.67D-10.
      5 vectors produced by pass 31 Test12= 3.53D-18 1.00D-11 XBig12= 9.29D-18 2.04D-10.
      5 vectors produced by pass 32 Test12= 3.53D-18 1.00D-11 XBig12= 6.61D-18 2.10D-10.
      5 vectors produced by pass 33 Test12= 3.53D-18 1.00D-11 XBig12= 1.96D-17 2.81D-10.
      5 vectors produced by pass 34 Test12= 3.53D-18 1.00D-11 XBig12= 1.96D-17 3.30D-10.
      5 vectors produced by pass 35 Test12= 3.53D-18 1.00D-11 XBig12= 3.02D-17 3.98D-10.
      5 vectors produced by pass 36 Test12= 3.53D-18 1.00D-11 XBig12= 1.30D-17 2.80D-10.
      5 vectors produced by pass 37 Test12= 3.53D-18 1.00D-11 XBig12= 1.56D-17 2.67D-10.
      5 vectors produced by pass 38 Test12= 3.53D-18 1.00D-11 XBig12= 3.85D-17 4.10D-10.
      5 vectors produced by pass 39 Test12= 3.53D-18 1.00D-11 XBig12= 1.44D-17 2.60D-10.
      5 vectors produced by pass 40 Test12= 3.53D-18 1.00D-11 XBig12= 2.69D-17 3.40D-10.
      5 vectors produced by pass 41 Test12= 3.53D-18 1.00D-11 XBig12= 1.41D-17 2.72D-10.
      5 vectors produced by pass 42 Test12= 3.53D-18 1.00D-11 XBig12= 2.20D-17 2.96D-10.
      5 vectors produced by pass 43 Test12= 3.53D-18 1.00D-11 XBig12= 1.72D-17 3.23D-10.
      5 vectors produced by pass 44 Test12= 3.53D-18 1.00D-11 XBig12= 1.76D-17 2.82D-10.
      5 vectors produced by pass 45 Test12= 3.53D-18 1.00D-11 XBig12= 1.58D-17 3.08D-10.
      4 vectors produced by pass 46 Test12= 3.53D-18 1.00D-11 XBig12= 1.12D-17 2.69D-10.
      4 vectors produced by pass 47 Test12= 3.53D-18 1.00D-11 XBig12= 2.18D-17 3.61D-10.
      4 vectors produced by pass 48 Test12= 3.53D-18 1.00D-11 XBig12= 2.63D-17 3.27D-10.
      4 vectors produced by pass 49 Test12= 3.53D-18 1.00D-11 XBig12= 1.71D-17 3.37D-10.
      4 vectors produced by pass 50 Test12= 3.53D-18 1.00D-11 XBig12= 1.53D-17 2.87D-10.
      4 vectors produced by pass 51 Test12= 3.53D-18 1.00D-11 XBig12= 1.94D-17 3.06D-10.
      4 vectors produced by pass 52 Test12= 3.53D-18 1.00D-11 XBig12= 1.66D-17 3.26D-10.
      4 vectors produced by pass 53 Test12= 3.53D-18 1.00D-11 XBig12= 3.51D-17 4.10D-10.
      4 vectors produced by pass 54 Test12= 3.53D-18 1.00D-11 XBig12= 1.90D-17 2.91D-10.
      4 vectors produced by pass 55 Test12= 3.53D-18 1.00D-11 XBig12= 2.86D-17 3.52D-10.
      4 vectors produced by pass 56 Test12= 3.53D-18 1.00D-11 XBig12= 4.76D-17 3.99D-10.
      4 vectors produced by pass 57 Test12= 3.53D-18 1.00D-11 XBig12= 1.66D-17 2.52D-10.
      4 vectors produced by pass 58 Test12= 3.53D-18 1.00D-11 XBig12= 2.22D-17 3.47D-10.
      4 vectors produced by pass 59 Test12= 3.53D-18 1.00D-11 XBig12= 2.10D-17 3.44D-10.
      4 vectors produced by pass 60 Test12= 3.53D-18 1.00D-11 XBig12= 3.16D-17 4.12D-10.
      4 vectors produced by pass 61 Test12= 3.53D-18 1.00D-11 XBig12= 1.70D-17 3.22D-10.
      4 vectors produced by pass 62 Test12= 3.53D-18 1.00D-11 XBig12= 1.94D-17 2.82D-10.
      4 vectors produced by pass 63 Test12= 3.53D-18 1.00D-11 XBig12= 3.43D-17 4.54D-10.
      4 vectors produced by pass 64 Test12= 3.53D-18 1.00D-11 XBig12= 1.52D-17 3.13D-10.
      4 vectors produced by pass 65 Test12= 3.53D-18 1.00D-11 XBig12= 1.94D-17 3.00D-10.
      4 vectors produced by pass 66 Test12= 3.53D-18 1.00D-11 XBig12= 3.88D-17 5.21D-10.
      4 vectors produced by pass 67 Test12= 3.53D-18 1.00D-11 XBig12= 1.38D-17 2.14D-10.
      4 vectors produced by pass 68 Test12= 3.53D-18 1.00D-11 XBig12= 1.05D-17 1.85D-10.
      4 vectors produced by pass 69 Test12= 3.53D-18 1.00D-11 XBig12= 3.86D-17 4.18D-10.
      4 vectors produced by pass 70 Test12= 3.53D-18 1.00D-11 XBig12= 1.22D-17 2.13D-10.
      4 vectors produced by pass 71 Test12= 3.53D-18 1.00D-11 XBig12= 2.56D-17 3.17D-10.
      4 vectors produced by pass 72 Test12= 3.53D-18 1.00D-11 XBig12= 1.35D-17 2.25D-10.
      4 vectors produced by pass 73 Test12= 3.53D-18 1.00D-11 XBig12= 1.75D-17 2.53D-10.
      4 vectors produced by pass 74 Test12= 3.53D-18 1.00D-11 XBig12= 2.37D-17 3.03D-10.
      4 vectors produced by pass 75 Test12= 3.53D-18 1.00D-11 XBig12= 1.83D-17 2.41D-10.
      4 vectors produced by pass 76 Test12= 3.53D-18 1.00D-11 XBig12= 1.14D-17 2.18D-10.
      4 vectors produced by pass 77 Test12= 3.53D-18 1.00D-11 XBig12= 2.13D-17 2.84D-10.
      4 vectors produced by pass 78 Test12= 3.53D-18 1.00D-11 XBig12= 4.16D-17 4.28D-10.
      4 vectors produced by pass 79 Test12= 3.53D-18 1.00D-11 XBig12= 1.82D-17 3.02D-10.
      4 vectors produced by pass 80 Test12= 3.53D-18 1.00D-11 XBig12= 2.58D-17 3.15D-10.
      4 vectors produced by pass 81 Test12= 3.53D-18 1.00D-11 XBig12= 2.13D-17 3.24D-10.
      4 vectors produced by pass 82 Test12= 3.53D-18 1.00D-11 XBig12= 7.36D-18 1.59D-10.
      4 vectors produced by pass 83 Test12= 3.53D-18 1.00D-11 XBig12= 2.94D-17 3.66D-10.
      4 vectors produced by pass 84 Test12= 3.53D-18 1.00D-11 XBig12= 3.26D-17 4.05D-10.
      4 vectors produced by pass 85 Test12= 3.53D-18 1.00D-11 XBig12= 1.78D-17 2.46D-10.
      4 vectors produced by pass 86 Test12= 3.53D-18 1.00D-11 XBig12= 3.30D-17 3.69D-10.
      4 vectors produced by pass 87 Test12= 3.53D-18 1.00D-11 XBig12= 1.37D-17 2.37D-10.
      3 vectors produced by pass 88 Test12= 3.53D-18 1.00D-11 XBig12= 2.03D-17 2.76D-10.
 InvSVY:  IOpt=1 It=  1 EMax= 2.84D-14
 Solved reduced A of dimension  1129 with   111 vectors.
 Calculating GIAO nuclear magnetic shielding tensors.
 SCF GIAO Magnetic shielding tensor (ppm):
      1  H    Isotropic =    23.8106   Anisotropy =     7.8980
   XX=    28.7264   YX=     0.9587   ZX=     0.8133
   XY=     0.9892   YY=    24.3785   ZY=    -0.0514
   XZ=     1.6380   YZ=     0.3751   ZZ=    18.3269
   Eigenvalues:    18.1840    24.1719    29.0760
      2  C    Isotropic =    50.9013   Anisotropy =   148.1652
   XX=    43.6569   YX=    33.0334   ZX=   -14.9238
   XY=    24.2444   YY=   -38.3210   ZY=    13.5952
   XZ=   -11.8529   YZ=    14.7720   ZZ=   147.3680
   Eigenvalues:   -48.9096    51.9353   149.6781
      3  C    Isotropic =    49.8833   Anisotropy =   150.9191
   XX=   -10.7030   YX=    42.7209   ZX=   -24.9865
   XY=    50.8968   YY=    13.3428   ZY=    18.2662
   XZ=   -13.7681   YZ=    16.8973   ZZ=   147.0100
   Eigenvalues:   -50.4554    49.6092   150.4960
      4  C    Isotropic =    45.9027   Anisotropy =   204.9061
   XX=   -30.0654   YX=     1.7801   ZX=   -22.6228
   XY=     1.4458   YY=   -13.9299   ZY=     2.3110
   XZ=    -3.3000   YZ=     1.1012   ZZ=   181.7033
   Eigenvalues:   -31.0277   -13.7711   182.5068
      5  C    Isotropic =    42.7155   Anisotropy =   210.6653
   XX=   -19.9253   YX=    -5.0661   ZX=   -16.2589
   XY=     0.7579   YY=   -27.9618   ZY=    33.2772
   XZ=   -11.1295   YZ=    38.7991   ZZ=   176.0336
   Eigenvalues:   -34.1439   -20.8686   183.1591
      6  H    Isotropic =    23.7890   Anisotropy =     7.6218
   XX=    25.4106   YX=     2.3566   ZX=     0.2973
   XY=     2.3134   YY=    27.2942   ZY=    -0.6350
   XZ=     1.4047   YZ=    -0.4423   ZZ=    18.6623
   Eigenvalues:    18.4732    24.0236    28.8703
      7  C    Isotropic =    48.1143   Anisotropy =   186.7437
   XX=   -23.4297   YX=    -6.2230   ZX=    13.4655
   XY=    -4.5069   YY=    -4.3889   ZY=     4.8279
   XZ=   -32.1160   YZ=    -3.4510   ZZ=   172.1615
   Eigenvalues:   -25.2344    -3.0328   172.6101
      8  C    Isotropic =    50.8997   Anisotropy =   150.3479
   XX=    51.0487   YX=    -6.2079   ZX=   -10.8068
   XY=    -0.9466   YY=   -48.4642   ZY=    -6.2667
   XZ=    -8.4153   YZ=    -3.0887   ZZ=   150.1144
   Eigenvalues:   -48.7199    50.2873   151.1316
      9  C    Isotropic =    49.0291   Anisotropy =   158.5285
   XX=   -40.2691   YX=    30.8439   ZX=   -24.8897
   XY=    24.5755   YY=    40.7458   ZY=    29.6623
   XZ=   -16.1172   YZ=    27.3312   ZZ=   146.6106
   Eigenvalues:   -52.8611    45.2336   154.7148
     10  C    Isotropic =    45.7135   Anisotropy =   199.0719
   XX=   -28.8698   YX=    -9.6769   ZX=    -5.5441
   XY=   -19.8458   YY=    -4.3278   ZY=    47.5563
   XZ=   -29.3964   YZ=    19.3090   ZZ=   170.3381
   Eigenvalues:   -35.8100    -5.4776   178.4281
     11  C    Isotropic =    47.6736   Anisotropy =   196.1729
   XX=   -20.9537   YX=     5.7914   ZX=     2.6139
   XY=    15.4770   YY=    -8.1783   ZY=   -45.5900
   XZ=   -29.7292   YZ=   -16.2478   ZZ=   172.1528
   Eigenvalues:   -27.0475    -8.3872   178.4555
     12  C    Isotropic =    56.2024   Anisotropy =   170.0257
   XX=     7.9676   YX=   -47.2236   ZX=   -19.5410
   XY=   -46.3418   YY=    -6.8763   ZY=   -16.2720
   XZ=   -15.1151   YZ=    -4.5515   ZZ=   167.5160
   Eigenvalues:   -48.5265    47.5808   169.5529
     13  C    Isotropic =    51.8189   Anisotropy =   179.7881
   XX=   -33.9549   YX=   -46.2045   ZX=   -11.5806
   XY=   -43.4775   YY=    28.2990   ZY=    32.8932
   XZ=    -7.5911   YZ=    36.4596   ZZ=   161.1126
   Eigenvalues:   -57.6906    41.4697   171.6776
     14  H    Isotropic =    23.6363   Anisotropy =     7.7207
   XX=    24.4625   YX=     1.9695   ZX=     0.1237
   XY=     2.0669   YY=    27.6859   ZY=    -1.2056
   XZ=    -0.1774   YZ=    -1.2609   ZZ=    18.7605
   Eigenvalues:    18.5823    23.5432    28.7834
     15  C    Isotropic =    48.2604   Anisotropy =   176.5556
   XX=   -16.1023   YX=    29.8219   ZX=   -39.5909
   XY=    28.5764   YY=    18.2236   ZY=    54.1862
   XZ=   -45.4816   YZ=    46.9144   ZZ=   142.6598
   Eigenvalues:   -53.0725    31.8896   165.9641
     16  C    Isotropic =    46.3194   Anisotropy =   195.0067
   XX=   -28.2029   YX=    14.2323   ZX=   -15.1727
   XY=    10.3326   YY=    -5.5472   ZY=   -22.3306
   XZ=     0.5065   YZ=   -26.0738   ZZ=   172.7085
   Eigenvalues:   -33.6315    -3.7341   176.3239
     17  C    Isotropic =    52.0978   Anisotropy =   177.2650
   XX=    44.9289   YX=     1.6983   ZX=   -17.3370
   XY=     6.4248   YY=   -34.5577   ZY=    63.9570
   XZ=   -15.2054   YZ=    72.0426   ZZ=   145.9223
   Eigenvalues:   -58.1054    44.1243   170.2745
     18  H    Isotropic =    24.0460   Anisotropy =     5.4538
   XX=    25.2528   YX=    -1.1953   ZX=     0.8060
   XY=    -1.0800   YY=    26.6986   ZY=    -1.3176
   XZ=     0.7785   YZ=    -1.5512   ZZ=    20.1865
   Eigenvalues:    19.8283    24.6278    27.6818
     19  H    Isotropic =    23.9574   Anisotropy =     6.6581
   XX=    28.2427   YX=     0.8192   ZX=     0.5343
   XY=     0.8159   YY=    23.9935   ZY=    -0.4203
   XZ=    -0.2905   YZ=    -2.1687   ZZ=    19.6361
   Eigenvalues:    19.2680    24.2081    28.3962
     20  C    Isotropic =    45.8847   Anisotropy =   198.1285
   XX=   -27.5340   YX=    16.3056   ZX=   -19.6804
   XY=    15.2593   YY=    -0.1982   ZY=   -41.5398
   XZ=   -11.4807   YZ=   -45.9069   ZZ=   165.3863
   Eigenvalues:   -34.8514    -5.4649   177.9703
     21  C    Isotropic =    50.5843   Anisotropy =   167.7472
   XX=    11.0114   YX=   -33.5085   ZX=   -29.5520
   XY=   -35.9296   YY=     1.4741   ZY=   -62.5773
   XZ=   -37.4590   YZ=   -50.9102   ZZ=   139.2674
   Eigenvalues:   -51.0419    40.3789   162.4158
     22  H    Isotropic =    22.4610   Anisotropy =    12.8312
   XX=    26.7127   YX=     3.8744   ZX=    -2.1011
   XY=     3.8129   YY=    25.2805   ZY=    -0.8830
   XZ=    -4.0159   YZ=    -4.7788   ZZ=    15.3897
   Eigenvalues:    14.2754    22.0924    31.0151
     23  H    Isotropic =    22.5242   Anisotropy =    12.8191
   XX=    28.5373   YX=    -3.0403   ZX=    -1.8810
   XY=    -3.2938   YY=    23.9596   ZY=     0.3000
   XZ=    -4.6101   YZ=     3.7979   ZZ=    15.0758
   Eigenvalues:    14.1483    22.3541    31.0703
     24  C    Isotropic =    51.3597   Anisotropy =   150.3988
   XX=    52.0904   YX=    -3.1716   ZX=   -10.3009
   XY=    -0.6797   YY=   -25.5142   ZY=   -60.4227
   XZ=    -7.2862   YZ=   -68.5193   ZZ=   127.5029
   Eigenvalues:   -49.2863    51.7398   151.6256
     25  C    Isotropic =    44.8834   Anisotropy =   211.1043
   XX=   -24.7549   YX=    -2.2944   ZX=   -22.5727
   XY=    -1.0164   YY=    -9.0340   ZY=   -52.2126
   XZ=   -20.6705   YZ=   -56.0442   ZZ=   168.4391
   Eigenvalues:   -32.9949   -17.9746   185.6196
     26  H    Isotropic =    23.7085   Anisotropy =     8.5106
   XX=    29.3598   YX=    -0.2715   ZX=     0.8206
   XY=    -0.3777   YY=    23.3214   ZY=     0.5891
   XZ=    -0.1906   YZ=     2.5597   ZZ=    18.4443
   Eigenvalues:    17.9666    23.7767    29.3822
     27  C    Isotropic =    49.4282   Anisotropy =   159.7085
   XX=    39.1411   YX=    29.1095   ZX=    -5.1619
   XY=    22.5253   YY=   -35.3559   ZY=   -47.0173
   XZ=    -2.8980   YZ=   -42.6263   ZZ=   144.4993
   Eigenvalues:   -52.3450    44.7290   155.9005
     28  C    Isotropic =    54.4444   Anisotropy =   176.5274
   XX=    45.2671   YX=     4.6935   ZX=   -13.8385
   XY=     1.6915   YY=   -35.9977   ZY=   -56.4043
   XZ=   -18.4096   YZ=   -58.2337   ZZ=   154.0636
   Eigenvalues:   -51.9620    43.1658   172.1293
     29  C    Isotropic =    51.4327   Anisotropy =   180.1665
   XX=   -35.6997   YX=    44.0563   ZX=   -11.6495
   XY=    45.8762   YY=    28.0011   ZY=   -32.3012
   XZ=   -10.0672   YZ=   -32.3018   ZZ=   161.9968
   Eigenvalues:   -59.0808    41.8353   171.5438
     30  H    Isotropic =    24.0402   Anisotropy =     5.6312
   XX=    25.1847   YX=     1.2093   ZX=     0.8299
   XY=     1.2588   YY=    26.5640   ZY=     1.6523
   XZ=     0.9459   YZ=     1.8000   ZZ=    20.3718
   Eigenvalues:    19.8634    24.4628    27.7943
     31  C    Isotropic =    51.4143   Anisotropy =   178.3238
   XX=   -11.9891   YX=   -44.0244   ZX=   -33.0405
   XY=   -42.0660   YY=    11.5914   ZY=   -46.8606
   XZ=   -33.9344   YZ=   -44.1019   ZZ=   154.6407
   Eigenvalues:   -58.7598    42.7059   170.2969
     32  H    Isotropic =    23.9543   Anisotropy =     6.1833
   XX=    26.1598   YX=    -1.9572   ZX=     0.1554
   XY=    -1.9772   YY=    25.9229   ZY=     1.1644
   XZ=     0.3960   YZ=     1.5093   ZZ=    19.7801
   Eigenvalues:    19.4294    24.3570    28.0764
     33  H    Isotropic =    23.6806   Anisotropy =     7.9983
   XX=    28.7979   YX=     0.5018   ZX=     1.1075
   XY=     0.7730   YY=    23.2628   ZY=     0.9788
   XZ=     1.0178   YZ=     1.3037   ZZ=    18.9812
   Eigenvalues:    18.6194    23.4097    29.0128
     34  H    Isotropic =    22.7259   Anisotropy =    10.7977
   XX=    29.5924   YX=    -0.5123   ZX=     1.4520
   XY=    -1.2962   YY=    22.5739   ZY=     0.6630
   XZ=     2.2781   YZ=     1.3044   ZZ=    16.0115
   Eigenvalues:    15.5872    22.6662    29.9244
     35  H    Isotropic =    23.6105   Anisotropy =     8.3492
   XX=    29.0234   YX=     0.1254   ZX=     0.9288
   XY=    -0.0693   YY=    24.0622   ZY=     0.2353
   XZ=     1.7172   YZ=    -0.2442   ZZ=    17.7459
   Eigenvalues:    17.5928    24.0620    29.1766
     36  H    Isotropic =    22.7298   Anisotropy =    10.8978
   XX=    27.3963   YX=    -3.4412   ZX=     0.9209
   XY=    -3.1201   YY=    25.6094   ZY=     0.9918
   XZ=     2.4497   YZ=    -0.3956   ZZ=    15.1836
   Eigenvalues:    14.9006    23.2937    29.9949
 Max diff in PS couplings:  IJMax=    24    13 Diff= 2.91D-10 IJMaxR=    24    17 DiffR= 3.78D-07
          There are   252 degrees of freedom in the 1st order CPHF.  IDoFFX=0 NUNeed=   252.
    216 vectors produced by pass  0 Test12= 3.53D-18 1.00D-11 XBig12= 2.27D+01 2.42D+00.
    216 vectors produced by pass  1 Test12= 3.53D-18 1.00D-11 XBig12= 1.12D-01 9.84D-02.
    216 vectors produced by pass  2 Test12= 3.53D-18 1.00D-11 XBig12= 1.18D-03 3.04D-03.
    216 vectors produced by pass  3 Test12= 3.53D-18 1.00D-11 XBig12= 2.25D-06 1.90D-04.
    216 vectors produced by pass  4 Test12= 3.53D-18 1.00D-11 XBig12= 2.24D-09 4.73D-06.
    216 vectors produced by pass  5 Test12= 3.53D-18 1.00D-11 XBig12= 1.74D-12 1.06D-07.
    216 vectors produced by pass  6 Test12= 3.53D-18 1.00D-11 XBig12= 9.26D-16 2.45D-09.
    216 vectors produced by pass  7 Test12= 3.53D-18 1.00D-11 XBig12= 2.27D-17 4.17D-10.
    167 vectors produced by pass  8 Test12= 3.53D-18 1.00D-11 XBig12= 2.09D-18 1.08D-10.
 InvSVY:  IOpt=1 It=  1 EMax= 2.44D-15
 Solved reduced A of dimension  1895 with   216 vectors.
 Max diff in FC couplings:  IJMax=    21     8 Diff= 5.93D-06 IJMaxR=    30    23 DiffR= 9.75D-04
 Max diff in SD couplings:  IJMax=    21     4 Diff= 1.91D-08 IJMaxR=    22     3 DiffR= 7.94D-05
 There are a total of      299248 grid points.
 ElSum from          density=      292.0005773367
 Fermi Contact (FC) contribution to K (Hz):
                1             2             3             4             5 
      1  0.000000D+00
      2  0.188861D+02  0.000000D+00
      3  0.259271D+00  0.378322D+02  0.000000D+00
      4  0.433822D+00  0.316150D+02 -0.309281D+00  0.000000D+00
      5  0.100075D+01 -0.280749D+00  0.310383D+02  0.300611D+01  0.000000D+00
      6  0.255209D+00  0.279401D+00  0.189227D+02  0.979725D+00  0.440555D+00
      7  0.653731D+00  0.463873D+00  0.209296D+01  0.328683D+02  0.482741D+00
      8  0.678967D+00  0.169818D+01  0.212769D+01  0.322094D+02 -0.397622D+00
      9 -0.463754D-02  0.220843D+01  0.162748D+01 -0.439342D+00  0.337325D+02
     10 -0.123962D+00  0.235470D+01  0.391613D+00  0.273787D+00  0.315730D+02
     11  0.715669D-01  0.143470D+01 -0.421365D+00  0.189772D+00  0.149418D+01
     12 -0.189363D-01  0.215901D+01  0.147301D+00 -0.372794D+00  0.244968D+00
     13  0.826917D-01  0.112737D+00  0.213000D+01  0.305136D+00 -0.415744D+00
     14  0.957640D-02 -0.336505D-01  0.734823D+00  0.483614D-01  0.404633D+00
     15  0.578145D-01 -0.392880D+00  0.136826D+01  0.143608D+01  0.727088D-01
     16  0.392044D-01 -0.447864D+00  0.259177D+00  0.283408D+01  0.321995D-01
     17 -0.525558D-01  0.292064D+00 -0.442780D+00 -0.421249D-01  0.348463D+01
     18  0.425579D-03  0.641454D-01 -0.172683D-02 -0.455878D-01  0.901193D+00
     19  0.956839D-02 -0.543111D-01  0.731692D-01  0.791970D-01 -0.139162D+00
     20 -0.164263D-01  0.183259D+00 -0.147570D+00 -0.424084D+00  0.185731D+00
     21  0.574118D-01  0.900268D-01  0.126727D+00  0.148131D+01 -0.240503D+00
     22 -0.615745D-02  0.376195D-01  0.120526D+00 -0.642077D-01  0.766809D+00
     23 -0.206408D-02  0.157097D-01 -0.150662D-01 -0.542731D-01  0.197753D-01
     24 -0.282396D-02  0.179048D+00 -0.989497D-01 -0.474343D-01  0.943056D-01
     25  0.122743D-01 -0.118495D+00  0.979746D-01  0.264322D+00 -0.102860D+00
     26  0.330993D-02 -0.748035D-02  0.159628D-01  0.835601D-01 -0.196256D-01
     27 -0.700121D-02  0.789143D-01 -0.643937D-01 -0.146045D+00  0.587027D-01
     28  0.736165D-02 -0.657290D-01  0.719048D-01  0.235772D+00 -0.460910D-01
     29  0.671218D-02 -0.710384D-01  0.616363D-01  0.134309D+00 -0.562559D-01
     30 -0.114459D-02  0.128004D-01 -0.108565D-01 -0.206618D-01  0.947015D-02
     31 -0.665490D-02  0.695995D-01 -0.587105D-01 -0.116090D+00  0.592206D-01
     32  0.769755D-03 -0.764879D-02  0.657546D-02  0.162413D-01 -0.590576D-02
     33  0.789446D-03 -0.811224D-02  0.692024D-02  0.177066D-01 -0.679001D-02
     34 -0.108303D-02  0.118589D-01 -0.968556D-02 -0.114423D-01  0.892614D-02
     35 -0.127338D-01  0.698674D+00 -0.194096D-01  0.400087D+00  0.371289D-01
     36  0.562471D-02 -0.643829D-02  0.631969D-01  0.952125D+00 -0.397424D-01
                6             7             8             9            10 
      6  0.000000D+00
      7 -0.141753D+00  0.000000D+00
      8 -0.603046D-02  0.471240D+00  0.000000D+00
      9  0.657700D+00  0.139381D+01  0.191104D+00  0.000000D+00
     10  0.640638D+00  0.327945D+02  0.149097D+01  0.367592D+00  0.000000D+00
     11  0.641838D-01  0.337646D+02  0.260384D+01  0.646664D-01  0.114134D+01
     12  0.714410D-01  0.237276D+01  0.371379D+02 -0.155040D+00 -0.418075D+00
     13 -0.238348D-01 -0.435857D+00 -0.158421D+00  0.355483D+02  0.302832D+01
     14 -0.140117D-01  0.845929D-01 -0.190069D-01  0.187950D+02  0.731283D+00
     15  0.704375D-01  0.759064D+00  0.623782D-01  0.307190D+01  0.332367D+02
     16 -0.488678D-01  0.444231D+00 -0.132622D+00  0.211951D+00  0.156478D+01
     17  0.470214D-01  0.176075D+01  0.224166D+00 -0.437371D+00 -0.270488D+00
     18  0.544088D-02  0.640639D-01  0.259130D-01  0.344505D+00 -0.147558D+00
     19 -0.616281D-02  0.311180D-01 -0.660738D-02  0.901271D+00  0.957146D+00
     20  0.261843D-01  0.147604D+01  0.186888D+01 -0.455250D-01  0.592321D-01
     21 -0.226280D-01  0.813243D+00 -0.406357D+00  0.116771D+00  0.888760D+00
     22  0.250750D-01  0.403925D+00  0.234716D-01 -0.144586D+00  0.311122D+00
     23  0.272717D-02  0.387060D+00  0.352225D-01 -0.787302D-02 -0.231429D-01
     24  0.172460D-01  0.179883D+01  0.276674D+00 -0.563952D-01 -0.146964D+00
     25 -0.179988D-01 -0.375846D+00 -0.685781D-02  0.541518D-01  0.131735D+00
     26 -0.264436D-02  0.191146D-01 -0.555990D-01  0.111848D-01  0.271563D-01
     27  0.126693D-01  0.183913D+00  0.203825D+00 -0.284803D-01 -0.696082D-01
     28 -0.120094D-01  0.489646D-01  0.254927D-01  0.342881D-01  0.137043D+00
     29 -0.120060D-01 -0.156458D+00 -0.101048D+00  0.276544D-01  0.653509D-01
     30  0.220633D-02  0.247168D-01  0.184054D-01 -0.447129D-02 -0.992248D-02
     31  0.116902D-01  0.230628D+00  0.121940D+00 -0.259962D-01 -0.466400D-01
     32 -0.123047D-02 -0.660592D-02 -0.164553D-01  0.362158D-02  0.110176D-01
     33 -0.132741D-02 -0.197313D-01 -0.742601D-02  0.341242D-02  0.824787D-02
     34  0.198567D-02  0.249045D-01  0.157496D-01 -0.423641D-02 -0.104013D-01
     35  0.716365D-02  0.698159D+00  0.188687D+02 -0.182019D-01  0.807737D-01
     36  0.122485D-03 -0.142252D+00  0.179164D+00  0.258606D-01  0.606918D-01
               11            12            13            14            15 
     11  0.000000D+00
     12  0.260899D+00  0.000000D+00
     13  0.170265D+00  0.140642D+00  0.000000D+00
     14  0.649047D-01  0.179437D-01  0.259617D+00  0.000000D+00
     15  0.757864D+00  0.159126D+00 -0.622475D+00 -0.139703D+00  0.000000D+00
     16  0.333694D+02  0.329597D+02 -0.145091D+00 -0.952691D-02 -0.268094D+00
     17 -0.186528D+00 -0.134810D+00  0.320732D+02  0.987163D+00  0.356213D+02
     18 -0.248101D-01 -0.231845D-01  0.190305D+02  0.235677D+00  0.839582D+00
     19  0.225432D-01  0.169430D-01  0.321988D+00  0.345422D-01  0.423415D+00
     20  0.489638D+00  0.900639D+00  0.628376D-01  0.106121D-01  0.103227D+00
     21  0.309846D+02  0.151744D+01 -0.438267D-01 -0.196127D-01  0.100854D+01
     22 -0.311941D-01 -0.226439D-01  0.987708D+00  0.202060D-01  0.189632D+02
     23  0.340716D+00  0.100570D+00  0.138923D-01  0.103588D-02  0.191256D+00
     24 -0.199146D+00 -0.376213D+00  0.614929D-01  0.576326D-02  0.161090D+00
     25  0.272684D+01  0.129132D+01 -0.536452D-01 -0.696675D-02 -0.362843D-01
     26  0.100130D+01  0.612566D-01 -0.121252D-01 -0.131504D-02 -0.132482D-01
     27 -0.429325D+00  0.818954D-01  0.290060D-01  0.362723D-02  0.599469D-01
     28  0.135052D+01  0.260298D+01 -0.309390D-01 -0.323624D-02 -0.635233D-01
     29  0.286039D+00  0.239605D+00 -0.275949D-01 -0.362506D-02 -0.479022D-01
     30 -0.419101D-01 -0.163384D-01  0.437255D-02  0.607754D-03  0.745508D-02
     31 -0.184907D-01  0.292363D-01  0.272423D-01  0.373013D-02  0.529002D-01
     32  0.858029D-01  0.177193D-01 -0.353317D-02 -0.386833D-03 -0.816008D-02
     33  0.450158D-01  0.513295D-01 -0.355042D-02 -0.424029D-03 -0.753127D-02
     34 -0.603933D-01  0.295339D-01  0.410155D-02  0.570025D-03  0.715252D-02
     35 -0.137495D+00  0.318958D+00  0.175750D-01  0.219575D-02  0.614902D-01
     36  0.701984D+00  0.186093D+02 -0.246923D-01 -0.279859D-02 -0.275238D-01
               16            17            18            19            20 
     16  0.000000D+00
     17  0.130246D+00  0.000000D+00
     18  0.219352D-01  0.347849D+00  0.000000D+00
     19 -0.202175D-01  0.189933D+02  0.202732D+00  0.000000D+00
     20  0.327156D+02 -0.605939D-01 -0.854368D-02  0.963455D-02  0.000000D+00
     21  0.186170D+00  0.161627D+00  0.182027D-01 -0.942747D-02  0.250909D+01
     22  0.291205D-01  0.196301D+00  0.263988D-01  0.257091D+00 -0.941983D-02
     23  0.693971D+00  0.130208D-01 -0.161917D-03  0.134339D-02 -0.118391D+00
     24  0.242806D+01 -0.404256D-01 -0.784066D-02  0.842071D-02  0.519970D+00
     25  0.279686D+00  0.544520D-01  0.739058D-02 -0.880590D-02  0.316381D+02
     26 -0.144886D+00  0.106485D-01  0.164073D-02 -0.172321D-02  0.674543D+00
     27  0.132048D+01 -0.257965D-01 -0.359532D-02  0.461623D-02  0.321817D+00
     28  0.947298D+00  0.265962D-01  0.403979D-02 -0.467445D-02  0.345744D+02
     29 -0.423608D+00  0.255303D-01  0.351328D-02 -0.445759D-02  0.300136D+01
     30  0.610643D-01 -0.422413D-02 -0.551979D-03  0.726359D-03 -0.142236D+00
     31  0.182155D+01 -0.243150D-01 -0.342504D-02  0.429346D-02 -0.136055D+00
     32  0.382070D-01  0.282811D-02  0.442446D-03 -0.527641D-03  0.930696D+00
     33  0.773133D-01  0.307022D-02  0.449228D-03 -0.550180D-03  0.724551D+00
     34  0.434977D+00 -0.382148D-02 -0.516210D-03  0.665063D-03  0.288550D+00
     35  0.976717D+00 -0.699936D-02 -0.255261D-02  0.334087D-02  0.380287D-01
     36  0.337530D+00  0.232090D-01  0.444856D-02 -0.262035D-02  0.438066D+00
               21            22            23            24            25 
     21  0.000000D+00
     22  0.183167D+00  0.000000D+00
     23  0.190605D+02 -0.186625D-01  0.000000D+00
     24  0.376990D+02  0.873519D-02  0.161290D+00  0.000000D+00
     25 -0.414448D+00  0.134270D-01  0.989619D+00  0.311953D+02  0.000000D+00
     26  0.356277D+00  0.201331D-02  0.279806D+00  0.188666D+02  0.409675D+00
     27  0.210143D+01 -0.210742D-02 -0.102825D-01  0.159925D+01  0.337051D+02
     28 -0.365375D+00  0.437208D-02  0.528282D-01  0.144799D+01  0.196175D+00
     29  0.697197D-01  0.402770D-02  0.808128D-01  0.211268D+01 -0.344327D+00
     30  0.623962D-01 -0.523342D-03 -0.229749D-04  0.472055D-02  0.914796D+00
     31  0.302480D+00 -0.362665D-02 -0.523253D-01 -0.445347D+00  0.341401D+01
     32 -0.542397D-01  0.455547D-03  0.965259D-02  0.721694D-01 -0.127625D+00
     33 -0.369010D-01  0.461457D-03  0.963798D-02  0.700644D+00  0.403053D+00
     34  0.363509D-01 -0.572280D-03 -0.602748D-02  0.109026D+00  0.727239D+00
     35  0.634635D-01 -0.276741D-02 -0.621492D-02 -0.546110D-01  0.807747D-01
     36  0.850748D-01  0.414530D-02  0.250852D-01  0.313541D-01 -0.459616D-01
               26            27            28            29            30 
     26  0.000000D+00
     27  0.639772D+00  0.000000D+00
     28  0.901715D-01  0.293552D+01  0.000000D+00
     29 -0.308713D-01  0.358041D+02 -0.550955D+00  0.000000D+00
     30  0.556188D-02  0.335664D+00  0.860553D+00  0.189949D+02  0.000000D+00
     31  0.466272D-01 -0.451459D+00  0.361132D+02  0.321116D+02  0.349771D+00
     32 -0.648190D-02  0.886589D+00  0.382611D+00  0.327286D+00  0.203013D+00
     33 -0.140727D-01  0.187699D+02 -0.144640D+00  0.271859D+00  0.236016D+00
     34  0.246495D-01 -0.142543D+00  0.184721D+02  0.961662D+00  0.255815D-01
     35  0.105369D-01 -0.882142D-02  0.198908D-01  0.176958D-01 -0.234452D-02
     36 -0.624982D-02  0.207476D-01  0.320544D-01 -0.886498D-02  0.269181D-02
               31            32            33            34            35 
     31  0.000000D+00
     32  0.189647D+02  0.000000D+00
     33  0.984700D+00  0.327505D-01  0.000000D+00
     34  0.185387D+00  0.251453D+00  0.208371D-01  0.000000D+00
     35 -0.184522D-01  0.288364D-02  0.401799D-02 -0.397283D-03  0.000000D+00
     36  0.148760D-01 -0.316500D-03 -0.240054D-02 -0.159367D-01  0.259719D+00
               36 
     36  0.000000D+00
 Fermi Contact (FC) contribution to J (Hz):
                1             2             3             4             5 
      1  0.000000D+00
      2  0.148197D+03  0.000000D+00
      3  0.203447D+01  0.746628D+02  0.000000D+00
      4  0.340416D+01  0.623929D+02 -0.610374D+00  0.000000D+00
      5  0.785276D+01 -0.554065D+00  0.612548D+02  0.593263D+01  0.000000D+00
      6  0.796251D+01  0.219243D+01  0.148484D+03  0.768780D+01  0.345700D+01
      7  0.512977D+01  0.915464D+00  0.413051D+01  0.648664D+02  0.952701D+00
      8  0.532779D+01  0.335139D+01  0.419904D+01  0.635661D+02 -0.784717D+00
      9 -0.363903D-01  0.435839D+01  0.321186D+01 -0.867053D+00  0.665720D+02
     10 -0.972720D+00  0.464706D+01  0.772858D+00  0.540325D+00  0.623102D+02
     11  0.561579D+00  0.283141D+01 -0.831575D+00  0.374520D+00  0.294881D+01
     12 -0.148591D+00  0.426085D+01  0.290703D+00 -0.735718D+00  0.483450D+00
     13  0.648874D+00  0.222488D+00  0.420360D+01  0.602194D+00 -0.820482D+00
     14  0.298783D+00 -0.264053D+00  0.576609D+01  0.379487D+00  0.317512D+01
     15  0.453665D+00 -0.775358D+00  0.270030D+01  0.283414D+01  0.143493D+00
     16  0.307633D+00 -0.883870D+00  0.511493D+00  0.559313D+01  0.635465D-01
     17 -0.412400D+00  0.576396D+00 -0.873837D+00 -0.831346D-01  0.687700D+01
     18  0.132780D-01  0.503342D+00 -0.135503D-01 -0.357723D+00  0.707158D+01
     19  0.298533D+00 -0.426174D+00  0.574152D+00  0.621451D+00 -0.109199D+01
     20 -0.128896D+00  0.361666D+00 -0.291233D+00 -0.836940D+00  0.366544D+00
     21  0.450505D+00  0.177670D+00  0.250099D+00  0.292340D+01 -0.474639D+00
     22 -0.192112D+00  0.295197D+00  0.945756D+00 -0.503832D+00  0.601708D+01
     23 -0.643992D-01  0.123272D+00 -0.118223D+00 -0.425876D+00  0.155175D+00
     24 -0.221594D-01  0.353356D+00 -0.195280D+00 -0.936127D-01  0.186114D+00
     25  0.963156D-01 -0.233852D+00  0.193355D+00  0.521646D+00 -0.202997D+00
     26  0.103270D+00 -0.586976D-01  0.125259D+00  0.655688D+00 -0.154000D+00
     27 -0.549378D-01  0.155739D+00 -0.127083D+00 -0.288222D+00  0.115851D+00
     28  0.577661D-01 -0.129718D+00  0.141906D+00  0.465302D+00 -0.909616D-01
     29  0.526698D-01 -0.140196D+00  0.121641D+00  0.265062D+00 -0.111022D+00
     30 -0.357112D-01  0.100444D+00 -0.851901D-01 -0.162131D+00  0.743114D-01
     31 -0.522204D-01  0.137356D+00 -0.115867D+00 -0.229107D+00  0.116873D+00
     32  0.240163D-01 -0.600193D-01  0.515970D-01  0.127444D+00 -0.463419D-01
     33  0.246307D-01 -0.636560D-01  0.543025D-01  0.138942D+00 -0.532806D-01
     34 -0.337905D-01  0.930553D-01 -0.760017D-01 -0.897865D-01  0.700426D-01
     35 -0.397294D+00  0.548243D+01 -0.152305D+00  0.313944D+01  0.291347D+00
     36  0.175491D+00 -0.505206D-01  0.495900D+00  0.747123D+01 -0.311855D+00
                6             7             8             9            10 
      6  0.000000D+00
      7 -0.111232D+01  0.000000D+00
      8 -0.473204D-01  0.930005D+00  0.000000D+00
      9  0.516091D+01  0.275071D+01  0.377149D+00  0.000000D+00
     10  0.502702D+01  0.647208D+02  0.294246D+01  0.725453D+00  0.000000D+00
     11  0.503644D+00  0.666352D+02  0.513873D+01  0.127621D+00  0.225245D+01
     12  0.560591D+00  0.468270D+01  0.732926D+02 -0.305976D+00 -0.825081D+00
     13 -0.187029D+00 -0.860175D+00 -0.312648D+00  0.701555D+02  0.597646D+01
     14 -0.437165D+00  0.663792D+00 -0.149145D+00  0.147483D+03  0.573830D+01
     15  0.552717D+00  0.149803D+01  0.123105D+00  0.606247D+01  0.655934D+02
     16 -0.383461D+00  0.876701D+00 -0.261734D+00  0.418291D+00  0.308813D+01
     17  0.368972D+00  0.347488D+01  0.442397D+00 -0.863162D+00 -0.533816D+00
     18  0.169755D+00  0.502703D+00  0.203337D+00  0.270330D+01 -0.115787D+01
     19 -0.192279D+00  0.244180D+00 -0.518475D-01  0.707219D+01  0.751063D+01
     20  0.205466D+00  0.291300D+01  0.368828D+01 -0.898448D-01  0.116896D+00
     21 -0.177560D+00  0.160496D+01 -0.801955D+00  0.230450D+00  0.175399D+01
     22  0.782340D+00  0.316956D+01  0.184179D+00 -0.113455D+01  0.244135D+01
     23  0.850874D-01  0.303722D+01  0.276387D+00 -0.617788D-01 -0.181600D+00
     24  0.135328D+00  0.355003D+01  0.546024D+00 -0.111297D+00 -0.290038D+00
     25 -0.141235D+00 -0.741741D+00 -0.135341D-01  0.106870D+00  0.259981D+00
     26 -0.825040D-01  0.149990D+00 -0.436280D+00  0.877663D-01  0.213093D+00
     27  0.994151D-01  0.362957D+00  0.402254D+00 -0.562066D-01 -0.137374D+00
     28 -0.942366D-01  0.966329D-01  0.503104D-01  0.676685D-01  0.270457D+00
     29 -0.942103D-01 -0.308775D+00 -0.199421D+00  0.545767D-01  0.128972D+00
     30  0.688375D-01  0.193950D+00  0.144425D+00 -0.350858D-01 -0.778608D-01
     31  0.917320D-01  0.455150D+00  0.240651D+00 -0.513042D-01 -0.920453D-01
     32 -0.383905D-01 -0.518360D-01 -0.129123D+00  0.284182D-01  0.864539D-01
     33 -0.414152D-01 -0.154829D+00 -0.582712D-01  0.267769D-01  0.647203D-01
     34  0.619527D-01  0.195424D+00  0.123586D+00 -0.332427D-01 -0.816182D-01
     35  0.223505D+00  0.547838D+01  0.148061D+03 -0.142828D+00  0.633824D+00
     36  0.382151D-02 -0.111623D+01  0.140588D+01  0.202925D+00  0.476243D+00
               11            12            13            14            15 
     11  0.000000D+00
     12  0.514891D+00  0.000000D+00
     13  0.336022D+00  0.277560D+00  0.000000D+00
     14  0.509301D+00  0.140803D+00  0.203719D+01  0.000000D+00
     15  0.149566D+01  0.314039D+00 -0.122847D+01 -0.109623D+01  0.000000D+00
     16  0.658554D+02  0.650467D+02 -0.286340D+00 -0.747567D-01 -0.529090D+00
     17 -0.368118D+00 -0.266051D+00  0.632973D+02  0.774618D+01  0.702996D+02
     18 -0.194683D+00 -0.181927D+00  0.149330D+03  0.735310D+01  0.658812D+01
     19  0.176895D+00  0.132950D+00  0.252661D+01  0.107771D+01  0.332250D+01
     20  0.966312D+00  0.177743D+01  0.124012D+00  0.832723D-01  0.203722D+00
[...]
    28  C   -0.000070   0.020127   0.015937   0.039836   0.064708   0.000025
    29  C    0.000000  -0.005125  -0.000314  -0.075972  -0.011228   0.000000
    30  H    0.000000   0.000003   0.000000   0.000106   0.000002   0.000000
    31  C   -0.000011   0.025359   0.005759  -0.029177   0.004072   0.000001
    32  H    0.000000  -0.000002  -0.000001   0.000045  -0.000003   0.000000
    33  H    0.000000  -0.000039   0.000003  -0.000254   0.000011   0.000000
    34  H    0.000000  -0.002003  -0.000227  -0.004077  -0.000100   0.000000
    35  H    0.001834   0.089051   0.031544  -0.045197   0.022577  -0.000012
    36  H   -0.000016  -0.002412   0.000969  -0.025151   0.000137   0.000000
               7          8          9         10         11         12
     1  H   -0.002484   0.102728   0.001603  -0.024863  -0.011871   0.038357
     2  C   -1.204408  -1.284734   0.596740  -0.308360  -0.979894  -0.429873
     3  C    1.006625  -0.184871  -0.048588  -0.476728  -0.012355   0.182809
     4  C   -4.776140   0.688078   0.165343  -1.262320  -2.512573  -0.929549
     5  C   -4.009028  -0.528964   0.382581  -1.213785  -0.992069  -0.239947
     6  H   -0.018129   0.003276   0.071933  -0.012966  -0.002308   0.000656
     7  C   11.826393  -0.311599  -1.440472   3.138411   2.804361  -0.177401
     8  C   -0.311599   8.670033  -0.049897  -0.759844   0.040975   2.529825
     9  C   -1.440472  -0.049897   8.431235  -2.269845  -0.355643  -0.045181
    10  C    3.138411  -0.759844  -2.269845  11.358199   1.013659  -0.399398
    11  C    2.804361   0.040975  -0.355643   1.013659  11.637589  -0.909920
    12  C   -0.177401   2.529825  -0.045181  -0.399398  -0.909920  10.719801
    13  C    0.102400  -0.077484  -0.023477   0.982084   0.050614   0.017532
    14  H   -0.014437   0.000417   0.424301  -0.011865   0.001451  -0.000163
    15  C    1.414223  -0.159942   0.573897  -0.857865   0.538491  -0.034712
    16  C   -1.571507  -1.572308   0.111841  -0.116835  -0.841171  -1.242117
    17  C   -0.051438   0.084771  -0.473735  -1.580681  -0.414612   0.035965
    18  H    0.000422   0.000387  -0.051875  -0.007057   0.000450   0.000009
    19  H    0.001950   0.000128  -0.027913   0.040584   0.004173   0.000070
    20  C   -0.499690  -0.684864   0.035149   0.059469  -0.548879  -0.697470
    21  C    1.233084   0.130008  -0.268760  -0.468750   0.479849  -0.217379
    22  H    0.014462   0.002559  -0.007895  -0.058051  -0.020678   0.001815
    23  H    0.006889  -0.002859  -0.001273  -0.015650  -0.042470   0.012774
    24  C   -0.817174   0.232482  -0.023848  -0.641243  -3.039970   0.580254
    25  C    0.211985  -0.745927  -0.020026  -0.503634   2.520448  -3.114982
    26  H   -0.000543  -0.000548  -0.000131  -0.002323   0.007380  -0.001507
    27  C    0.035275   0.076294  -0.003683  -0.044697  -1.421104   0.665216
    28  C   -0.503673   0.068655   0.003416  -0.057162  -1.264001   0.430919
    29  C   -0.044493  -0.025626  -0.000656  -0.033429  -0.050995  -0.132102
    30  H    0.000059   0.000227   0.000000   0.000033   0.000847   0.002268
    31  C   -0.171532   0.056993   0.001372  -0.002582  -0.194744  -0.363811
    32  H   -0.000354   0.001026   0.000000   0.000018   0.001942   0.008927
    33  H    0.000741  -0.000464  -0.000002   0.000171   0.012485  -0.003876
    34  H   -0.004596  -0.003665  -0.000009   0.000429   0.004858   0.057523
    35  H   -0.034888   0.383499   0.000962  -0.015277  -0.017360  -0.048977
    36  H   -0.028973  -0.104850   0.000120  -0.003840   0.028594   0.370906
              13         14         15         16         17         18
     1  H   -0.000537  -0.000010  -0.004262   0.019301   0.000388   0.000000
     2  C   -0.375892   0.035904   0.376821  -0.995429  -0.002115   0.000592
     3  C   -0.819987   0.060244   0.116561  -0.226343   0.321487   0.014044
     4  C   -0.391533   0.010137  -4.401874   1.754937  -0.159952   0.004191
     5  C   -0.811723  -0.115404  -4.281667   0.736525   0.144317   0.032453
     6  H    0.020281   0.002408   0.001584   0.001580   0.000670  -0.000020
     7  C    0.102400  -0.014437   1.414223  -1.571507  -0.051438   0.000422
     8  C   -0.077484   0.000417  -0.159942  -1.572308   0.084771   0.000387
     9  C   -0.023477   0.424301   0.573897   0.111841  -0.473735  -0.051875
    10  C    0.982084  -0.011865  -0.857865  -0.116835  -1.580681  -0.007057
    11  C    0.050614   0.001451   0.538491  -0.841171  -0.414612   0.000450
    12  C    0.017532  -0.000163  -0.034712  -1.242117   0.035965   0.000009
    13  C    7.044127  -0.046455   0.077989  -0.076391   0.114829   0.368324
    14  H   -0.046455   0.552692   0.001759  -0.000050  -0.010359  -0.007971
    15  C    0.077989   0.001759  13.370781  -1.231037  -0.755778  -0.013505
    16  C   -0.076391  -0.000050  -1.231037  11.208217   0.008808   0.000116
    17  C    0.114829  -0.010359  -0.755778   0.008808   8.171095  -0.001120
    18  H    0.368324  -0.007971  -0.013505   0.000116  -0.001120   0.543391
    19  H    0.008541  -0.000316  -0.047101  -0.001149   0.393220  -0.007419
    20  C   -0.012987   0.000023  -0.625720   3.357129  -0.040969   0.000028
    21  C    0.091417  -0.000923   1.582216  -1.587921   0.335674  -0.001158
    22  H    0.000890   0.000079   0.468330  -0.002208  -0.077752  -0.000325
    23  H    0.002532   0.000000   0.075310   0.009888  -0.006839   0.000003
    24  C    0.046139  -0.000100   0.470222  -0.048549   0.433495  -0.000281
    25  C    0.020122   0.000004   0.754706  -0.525764   0.068590  -0.000023
    26  H    0.000130   0.000000   0.003888  -0.019041  -0.001547   0.000000
    27  C    0.003793   0.000001  -0.018664  -0.202379   0.014138  -0.000001
    28  C   -0.002227  -0.000002  -0.214478  -1.284444  -0.007340   0.000001
    29  C    0.000513   0.000000   0.027894   0.110542   0.003888   0.000000
    30  H    0.000000   0.000000  -0.000013   0.002988  -0.000001   0.000000
    31  C   -0.000470   0.000000  -0.020902  -0.474882  -0.000782   0.000000
    32  H    0.000000   0.000000  -0.000006  -0.003426   0.000000   0.000000
    33  H   -0.000002   0.000000  -0.000033  -0.016568  -0.000001   0.000000
    34  H   -0.000004   0.000000   0.000210   0.006106   0.000039   0.000000
    35  H    0.000215   0.000000  -0.004878  -0.024868  -0.000330   0.000000
    36  H   -0.000011   0.000000  -0.000767   0.012109  -0.000029   0.000000
              19         20         21         22         23         24
     1  H    0.000000   0.001813  -0.003531  -0.000001   0.000000  -0.000503
     2  C   -0.001384  -0.158978  -0.121844  -0.000799   0.006400   0.041250
     3  C   -0.001135   0.011510   0.026346   0.001994  -0.000598  -0.078124
     4  C   -0.002255   0.817579  -2.913621  -0.022306  -0.023447  -0.481766
     5  C   -0.019425   0.388245  -1.732896  -0.011260  -0.012703  -0.422340
     6  H   -0.000002   0.000096  -0.000614   0.000013   0.000000  -0.000070
     7  C    0.001950  -0.499690   1.233084   0.014462   0.006889  -0.817174
     8  C    0.000128  -0.684864   0.130008   0.002559  -0.002859   0.232482
     9  C   -0.027913   0.035149  -0.268760  -0.007895  -0.001273  -0.023848
    10  C    0.040584   0.059469  -0.468750  -0.058051  -0.015650  -0.641243
    11  C    0.004173  -0.548879   0.479849  -0.020678  -0.042470  -3.039970
    12  C    0.000070  -0.697470  -0.217379   0.001815   0.012774   0.580254
    13  C    0.008541  -0.012987   0.091417   0.000890   0.002532   0.046139
    14  H   -0.000316   0.000023  -0.000923   0.000079   0.000000  -0.000100
    15  C   -0.047101  -0.625720   1.582216   0.468330   0.075310   0.470222
    16  C   -0.001149   3.357129  -1.587921  -0.002208   0.009888  -0.048549
    17  C    0.393220  -0.040969   0.335674  -0.077752  -0.006839   0.433495
    18  H   -0.007419   0.000028  -0.001158  -0.000325   0.000003  -0.000281
    19  H    0.542247  -0.000217   0.003201  -0.007305   0.000076  -0.002754
    20  C   -0.000217  10.965925  -1.806969  -0.003411  -0.026411  -1.137570
    21  C    0.003201  -1.806969  11.376918   0.046948   0.424671   1.547931
    22  H   -0.007305  -0.003411   0.046948   0.515151  -0.008880   0.011103
    23  H    0.000076  -0.026411   0.424671  -0.008880   0.515103  -0.057665
    24  C   -0.002754  -1.137570   1.547931   0.011103  -0.057665  10.574480
    25  C    0.000039  -1.229795  -1.354714  -0.005676   0.000017  -1.897592
    26  H    0.000001  -0.017868   0.007872   0.000045  -0.008092   0.376436
    27  C    0.000009  -0.127997  -0.081268   0.001252   0.001959   0.595550
    28  C   -0.000019  -1.651676   0.587901   0.000296  -0.006978   0.811474
    29  C    0.000003   0.844643  -0.361242   0.000051   0.000309  -1.000258
    30  H    0.000000   0.009020   0.002060   0.000000  -0.000001   0.013506
    31  C   -0.000002  -1.859677   0.147392   0.000012  -0.001301   0.459324
    32  H    0.000000   0.066706  -0.001370   0.000000   0.000000  -0.001386
    33  H    0.000000  -0.011857   0.030425  -0.000001  -0.000016   0.046107
    34  H    0.000000   0.040063  -0.003594   0.000000   0.000000   0.001459
    35  H    0.000000  -0.006479  -0.001588   0.000001  -0.000002   0.000560
    36  H    0.000000  -0.003562   0.010296   0.000000   0.000012   0.001569
              25         26         27         28         29         30
     1  H    0.000099   0.000000  -0.000016  -0.000070   0.000000   0.000000
     2  C   -0.210278  -0.000009   0.004966   0.020127  -0.005125   0.000003
     3  C    0.011110   0.000061  -0.011757   0.015937  -0.000314   0.000000
     4  C   -1.294086  -0.001917   0.123780   0.039836  -0.075972   0.000106
     5  C   -0.355735  -0.001213   0.020093   0.064708  -0.011228   0.000002
     6  H   -0.000016   0.000000  -0.000001   0.000025   0.000000   0.000000
     7  C    0.211985  -0.000543   0.035275  -0.503673  -0.044493   0.000059
     8  C   -0.745927  -0.000548   0.076294   0.068655  -0.025626   0.000227
     9  C   -0.020026  -0.000131  -0.003683   0.003416  -0.000656   0.000000
    10  C   -0.503634  -0.002323  -0.044697  -0.057162  -0.033429   0.000033
    11  C    2.520448   0.007380  -1.421104  -1.264001  -0.050995   0.000847
    12  C   -3.114982  -0.001507   0.665216   0.430919  -0.132102   0.002268
    13  C    0.020122   0.000130   0.003793  -0.002227   0.000513   0.000000
    14  H    0.000004   0.000000   0.000001  -0.000002   0.000000   0.000000
    15  C    0.754706   0.003888  -0.018664  -0.214478   0.027894  -0.000013
    16  C   -0.525764  -0.019041  -0.202379  -1.284444   0.110542   0.002988
    17  C    0.068590  -0.001547   0.014138  -0.007340   0.003888  -0.000001
    18  H   -0.000023   0.000000  -0.000001   0.000001   0.000000   0.000000
    19  H    0.000039   0.000001   0.000009  -0.000019   0.000003   0.000000
    20  C   -1.229795  -0.017868  -0.127997  -1.651676   0.844643   0.009020
    21  C   -1.354714   0.007872  -0.081268   0.587901  -0.361242   0.002060
    22  H   -0.005676   0.000045   0.001252   0.000296   0.000051   0.000000
    23  H    0.000017  -0.008092   0.001959  -0.006978   0.000309  -0.000001
    24  C   -1.897592   0.376436   0.595550   0.811474  -1.000258   0.013506
    25  C   18.082467  -0.082577  -4.125126  -1.655077   0.316522   0.032400
    26  H   -0.082577   0.552315   0.048356   0.005883   0.014318  -0.000023
    27  C   -4.125126   0.048356   9.215910   1.773952   0.010034  -0.048512
    28  C   -1.655077   0.005883   1.773952   9.994424  -0.778692  -0.011674
    29  C    0.316522   0.014318   0.010034  -0.778692   6.592950   0.363430
    30  H    0.032400  -0.000023  -0.048512  -0.011674   0.363430   0.543233
    31  C    0.768598   0.001489  -0.687038  -0.505697   0.640035  -0.020521
    32  H   -0.021162  -0.000002  -0.011157  -0.105569   0.003584  -0.007300
    33  H   -0.082137   0.002768   0.400027   0.006526  -0.029765  -0.007813
    34  H   -0.037120   0.000010  -0.003737   0.389113   0.002428  -0.000327
    35  H   -0.002375   0.000000   0.000289   0.007039  -0.000002   0.000000
    36  H    0.011716   0.000000  -0.001353   0.041681   0.001803  -0.000001
              31         32         33         34         35         36
     1  H   -0.000011   0.000000   0.000000   0.000000   0.001834  -0.000016
     2  C    0.025359  -0.000002  -0.000039  -0.002003   0.089051  -0.002412
     3  C    0.005759  -0.000001   0.000003  -0.000227   0.031544   0.000969
     4  C   -0.029177   0.000045  -0.000254  -0.004077  -0.045197  -0.025151
     5  C    0.004072  -0.000003   0.000011  -0.000100   0.022577   0.000137
     6  H    0.000001   0.000000   0.000000   0.000000  -0.000012   0.000000
     7  C   -0.171532  -0.000354   0.000741  -0.004596  -0.034888  -0.028973
     8  C    0.056993   0.001026  -0.000464  -0.003665   0.383499  -0.104850
     9  C    0.001372   0.000000  -0.000002  -0.000009   0.000962   0.000120
    10  C   -0.002582   0.000018   0.000171   0.000429  -0.015277  -0.003840
    11  C   -0.194744   0.001942   0.012485   0.004858  -0.017360   0.028594
    12  C   -0.363811   0.008927  -0.003876   0.057523  -0.048977   0.370906
    13  C   -0.000470   0.000000  -0.000002  -0.000004   0.000215  -0.000011
    14  H    0.000000   0.000000   0.000000   0.000000   0.000000   0.000000
    15  C   -0.020902  -0.000006  -0.000033   0.000210  -0.004878  -0.000767
    16  C   -0.474882  -0.003426  -0.016568   0.006106  -0.024868   0.012109
    17  C   -0.000782   0.000000  -0.000001   0.000039  -0.000330  -0.000029
    18  H    0.000000   0.000000   0.000000   0.000000   0.000000   0.000000
    19  H   -0.000002   0.000000   0.000000   0.000000   0.000000   0.000000
    20  C   -1.859677   0.066706  -0.011857   0.040063  -0.006479  -0.003562
    21  C    0.147392  -0.001370   0.030425  -0.003594  -0.001588   0.010296
    22  H    0.000012   0.000000  -0.000001   0.000000   0.000001   0.000000
    23  H   -0.001301   0.000000  -0.000016   0.000000  -0.000002   0.000012
    24  C    0.459324  -0.001386   0.046107   0.001459   0.000560   0.001569
    25  C    0.768598  -0.021162  -0.082137  -0.037120  -0.002375   0.011716
    26  H    0.001489  -0.000002   0.002768   0.000010   0.000000   0.000000
    27  C   -0.687038  -0.011157   0.400027  -0.003737   0.000289  -0.001353
    28  C   -0.505697  -0.105569   0.006526   0.389113   0.007039   0.041681
    29  C    0.640035   0.003584  -0.029765   0.002428  -0.000002   0.001803
    30  H   -0.020521  -0.007300  -0.007813  -0.000327   0.000000  -0.000001
    31  C    8.513958   0.408641  -0.018261  -0.120815   0.000722   0.014899
    32  H    0.408641   0.545269  -0.000311  -0.008585   0.000000   0.000010
    33  H   -0.018261  -0.000311   0.551774   0.000081   0.000000   0.000001
    34  H   -0.120815  -0.008585   0.000081   0.567023   0.000019  -0.000107
    35  H    0.000722   0.000000   0.000000   0.000019   0.556717  -0.009334
    36  H    0.014899   0.000010   0.000001  -0.000107  -0.009334   0.567616
 Mulliken charges:
               1
     1  H    0.118991
     2  C   -0.347816
     3  C   -0.274406
     4  C    1.251347
     5  C    1.002304
     6  H    0.120266
     7  C   -0.114322
     8  C   -0.573914
     9  C    0.312417
    10  C    0.555994
    11  C    0.484452
    12  C   -0.667261
    13  C   -0.313292
    14  H    0.118635
    15  C   -1.181677
    16  C    0.724300
    17  C   -0.545993
    18  H    0.126346
    19  H    0.124156
    20  C    0.555647
    21  C   -1.136066
    22  H    0.161548
    23  H    0.159243
    24  C   -0.592148
    25  C    0.465001
    26  H    0.116389
    27  C   -0.202403
    28  C   -0.213133
    29  C   -0.383045
    30  H    0.126004
    31  C   -0.576420
    32  H    0.124466
    33  H    0.120277
    34  H    0.119606
    35  H    0.116537
    36  H    0.117968
 Sum of Mulliken charges =   0.00000
 Mulliken charges with hydrogens summed into heavy atoms:
               1
     2  C   -0.228824
     3  C   -0.154140
     4  C    1.251347
     5  C    1.002304
     7  C   -0.114322
     8  C   -0.457377
     9  C    0.431053
    10  C    0.555994
    11  C    0.484452
    12  C   -0.549293
    13  C   -0.186946
    15  C   -1.020129
    16  C    0.724300
    17  C   -0.421837
    20  C    0.555647
    21  C   -0.976823
    24  C   -0.475759
    25  C    0.465001
    27  C   -0.082126
    28  C   -0.093527
    29  C   -0.257042
    31  C   -0.451953
 Electronic spatial extent (au):  <R**2>=           7079.1280
 Charge=              0.0000 electrons
 Dipole moment (field-independent basis, Debye):
    X=             -0.0522    Y=              0.0665    Z=              0.0333  Tot=              0.0909
 Quadrupole moment (field-independent basis, Debye-Ang):
   XX=           -111.4681   YY=           -112.8175   ZZ=           -135.8904
   XY=             -0.1590   XZ=              1.5911   YZ=              0.9034
 Traceless Quadrupole moment (field-independent basis, Debye-Ang):
   XX=              8.5906   YY=              7.2412   ZZ=            -15.8318
   XY=             -0.1590   XZ=              1.5911   YZ=              0.9034
 Octapole moment (field-independent basis, Debye-Ang**2):
  XXX=             -0.2304  YYY=              4.8677  ZZZ=             -0.2188  XYY=             -0.7989
  XXY=             -2.8956  XXZ=              2.9985  XZZ=              0.4937  YZZ=             -2.8595
  YYZ=              1.0218  XYZ=             16.3445
 Hexadecapole moment (field-independent basis, Debye-Ang**3):
 XXXX=          -6991.2679 YYYY=          -1918.0057 ZZZZ=           -256.7838 XXXY=             -4.7045
 XXXZ=             83.0502 YYYX=             -2.5136 YYYZ=             -0.2742 ZZZX=              0.0753
 ZZZY=              1.5861 XXYY=          -1495.4358 XXZZ=          -1468.9489 YYZZ=           -416.9777
 XXYZ=              8.2610 YYXZ=            -16.6275 ZZXY=              3.7310
 N-N= 1.555506113765D+03 E-N=-5.075385848789D+03  KE= 8.430184411762D+02
 Calculating spin-rotation constants.
 Leave Link  601 at Thu Jul 30 13:22:31 2015, MaxMem=  1769472000 cpu:       189.5
 (Enter /usr/g09/l9999.exe)
 1\1\GINC-GAMBIT\SP\RB3LYP\6-311+G(d,p)\C22H14\JEANNERA\30-Jul-2015\0\\
 #p B3LYP/6-311+G** NMR=SPINSPIN\\empty\\0,1\H,0,2.607672,3.538824,0.29
 5805\C,0,2.534515,2.456039,0.229328\C,0,3.645287,1.677215,0.327774\C,0
 ,1.235996,1.87529,0.069719\C,0,3.556264,0.262229,0.137932\H,0,4.624888
 ,2.120638,0.48844\C,0,1.073723,0.465001,0.046119\C,0,0.098518,2.717922
 ,-0.049833\C,0,4.733776,-0.520662,0.079054\C,0,2.277889,-0.350447,-0.0
 72459\C,0,-0.27267,-0.062636,0.140501\C,0,-1.160354,2.199288,-0.174662
 \C,0,4.687876,-1.859298,-0.250993\H,0,5.687306,-0.033705,0.27019\C,0,2
 .281192,-1.707692,-0.490755\C,0,-1.390232,0.800122,-0.056819\C,0,3.449
 194,-2.443699,-0.573395\H,0,5.601061,-2.445804,-0.301982\H,0,3.407486,
 -3.476454,-0.909016\C,0,-2.738558,0.25383,-0.073473\C,0,-0.541344,-1.4
 14974,0.545004\H,0,1.356172,-2.171913,-0.807012\H,0,0.279443,-2.035577
 ,0.87863\C,0,-1.808373,-1.914351,0.607466\C,0,-2.939949,-1.120271,0.25
 1656\H,0,-1.97473,-2.933329,0.948881\C,0,-4.247697,-1.661387,0.251605\
 C,0,-3.880928,1.026171,-0.40124\C,0,-5.338668,-0.881354,-0.070845\H,0,
 -6.338111,-1.307572,-0.072083\C,0,-5.147949,0.474209,-0.404579\H,0,-6.
 002051,1.091324,-0.670196\H,0,-4.376378,-2.71018,0.509182\H,0,-3.77053
 6,2.068543,-0.679103\H,0,0.249927,3.794571,-0.059669\H,0,-1.997197,2.8
 77371,-0.294703\\Version=AS64L-G09RevD.01\State=1-A\HF=-847.0133449\RM
 SD=8.935e-09\Dipole=0.0205366,0.0261523,-0.0131112\Quadrupole=6.386891
 3,5.383638,-11.7705293,0.1182231,1.1829314,-0.6716289\PG=C01 [X(C22H14
 )]\\@


      LET US REMEMBER, PLEASE, THAT THE SEARCH FOR THE CONSTITUTION
      OF THE WORLD IS ONE OF THE GREATEST AND NOBLEST PROBLEMS PRESENTED 
      BY NATURE.

                                                  -- GALILEO
 Job cpu time:       1 days 23 hours 48 minutes  4.4 seconds.
 File lengths (MBytes):  RWF=   3007 Int=      0 D2E=      0 Chk=     18 Scr=      1
 Normal termination of Gaussian 09 at Thu Jul 30 13:22:32 2015.
