 Entering Gaussian System, Link 0=g03
 Initial command:
 /usr/g03/l1.exe /tmp/gauss.5070/Gau-5123.inp -scrdir=/tmp/gauss.5070/
 Entering Link 1 = /usr/g03/l1.exe PID=      5124.
  
 Copyright (c) 1988,1990,1992,1993,1995,1998,2003,2004, Gaussian, Inc.
                  All Rights Reserved.
  
 This is the Gaussian(R) 03 program.  It is based on the
 the Gaussian(R) 98 system (copyright 1998, Gaussian, Inc.),
 the Gaussian(R) 94 system (copyright 1995, Gaussian, Inc.),
 the Gaussian 92(TM) system (copyright 1992, Gaussian, Inc.),
 the Gaussian 90(TM) system (copyright 1990, Gaussian, Inc.),
 the Gaussian 88(TM) system (copyright 1988, Gaussian, Inc.),
 the Gaussian 86(TM) system (copyright 1986, Carnegie Mellon
 University), and the Gaussian 82(TM) system (copyright 1983,
 Carnegie Mellon University). Gaussian is a federally registered
 trademark of Gaussian, Inc.
  
 This software contains proprietary and confidential information,
 including trade secrets, belonging to Gaussian, Inc.
  
 This software is provided under written license and may be
 used, copied, transmitted, or stored only in accord with that
 written license.
  
 The following legend is applicable only to US Government
 contracts under FAR:
  
                    RESTRICTED RIGHTS LEGEND
  
 Use, reproduction and disclosure by the US Government is
 subject to restrictions as set forth in subparagraphs (a)
 and (c) of the Commercial Computer Software - Restricted
 Rights clause in FAR 52.227-19.
  
 Gaussian, Inc.
 340 Quinnipiac St., Bldg. 40, Wallingford CT 06492
  
  
 ---------------------------------------------------------------
 Warning -- This program may not be used in any manner that
 competes with the business of Gaussian, Inc. or will provide
 assistance to any competitor of Gaussian, Inc.  The licensee
 of this program is prohibited from giving any competitor of
 Gaussian, Inc. access to this program.  By using this program,
 the user acknowledges that Gaussian, Inc. is engaged in the
 business of creating and licensing software in the field of
 computational chemistry and represents and warrants to the
 licensee that it is not a competitor of Gaussian, Inc. and that
 it will not use this program in any manner prohibited above.
 ---------------------------------------------------------------
  

 Cite this work as:
 Gaussian 03, Revision C.02,
 M. J. Frisch, G. W. Trucks, H. B. Schlegel, G. E. Scuseria, 
 M. A. Robb, J. R. Cheeseman, J. A. Montgomery, Jr., T. Vreven, 
 K. N. Kudin, J. C. Burant, J. M. Millam, S. S. Iyengar, J. Tomasi, 
 V. Barone, B. Mennucci, M. Cossi, G. Scalmani, N. Rega, 
 G. A. Petersson, H. Nakatsuji, M. Hada, M. Ehara, K. Toyota, 
 R. Fukuda, J. Hasegawa, M. Ishida, T. Nakajima, Y. Honda, O. Kitao, 
 H. Nakai, M. Klene, X. Li, J. E. Knox, H. P. Hratchian, J. B. Cross, 
 C. Adamo, J. Jaramillo, R. Gomperts, R. E. Stratmann, O. Yazyev, 
 A. J. Austin, R. Cammi, C. Pomelli, J. W. Ochterski, P. Y. Ayala, 
 K. Morokuma, G. A. Voth, P. Salvador, J. J. Dannenberg, 
 V. G. Zakrzewski, S. Dapprich, A. D. Daniels, M. C. Strain, 
 O. Farkas, D. K. Malick, A. D. Rabuck, K. Raghavachari, 
 J. B. Foresman, J. V. Ortiz, Q. Cui, A. G. Baboul, S. Clifford, 
 J. Cioslowski, B. B. Stefanov, G. Liu, A. Liashenko, P. Piskorz, 
 I. Komaromi, R. L. Martin, D. J. Fox, T. Keith, M. A. Al-Laham, 
 C. Y. Peng, A. Nanayakkara, M. Challacombe, P. M. W. Gill, 
 B. Johnson, W. Chen, M. W. Wong, C. Gonzalez, and J. A. Pople, 
 Gaussian, Inc., Wallingford CT, 2004.
 
 ******************************************
 Gaussian 03:  AM64L-G03RevC.02 12-Jun-2004
                 2-May-2012 
 ******************************************
 %mem=3500MB
 %nproc=2
 Will use up to    2 processors via shared memory.
 -------------------------------
 #p B3LYP/6-311+G** NMR=SPINSPIN
 -------------------------------
 1/38=1/1;
 2/17=6,18=5,40=1/2;
 3/5=4,6=6,7=111,11=2,16=1,25=1,30=1,74=-5/1,2,8,3;
 4//1;
 5/5=2,38=5/2;
 8/6=1,10=90,11=11/1;
 10/13=100,45=16,47=1/2;
 6/7=2,8=2,9=2,10=2,28=1/1;
 99/9=1/99;
 Leave Link    1 at Wed May  2 12:28:47 2012, MaxMem=  458752000 cpu:       0.1
 (Enter /usr/g03/l101.exe)
 -----
 empty
 -----
 Symbolic Z-matrix:
 Charge =  0 Multiplicity = 1
 6                    -0.24584   2.16946   0.1242 
 6                     0.62694   1.14039   0.87005 
 8                    -0.29525   0.30055   1.57053 
 6                    -1.60618   0.35102   0.96077 
 6                    -1.54075   1.38342  -0.17247 
 6                     1.4566    0.27764  -0.08702 
 6                    -1.95399  -1.07245   0.52918 
 7                    -3.34735  -1.08726   0.03776 
 7                    -3.72273  -2.14273  -0.4784 
 7                    -4.18922  -3.05849  -0.97858 
 8                     1.14875   0.07072  -1.25264 
 8                     2.51816  -0.24982   0.52216 
 6                     3.36419  -1.17332  -0.24314 
 6                     3.97143  -2.12167   0.7798 
 6                     4.39432  -0.36855  -1.02683 
 1                     4.59439  -1.57525   1.49598 
 1                     4.59797  -2.86347   0.27309 
 1                     3.18979  -2.65009   1.33409 
 1                     2.70818  -1.71139  -0.93267 
 1                     3.90404   0.29972  -1.74008 
 1                     5.04793  -1.04611  -1.58717 
 1                     5.01537   0.22736  -0.34922 
 1                    -1.43288   0.87877  -1.14376 
 1                    -1.84144  -1.74258   1.39148 
 1                    -1.25513  -1.39893  -0.25253 
 1                     1.29295   1.5919    1.61019 
 1                    -0.50158   2.97557   0.81961 
 1                    -2.32404   0.69549   1.71398 
 8                     0.34144   2.78722  -0.99963 
 1                    -0.33083   3.39981  -1.35072 
 8                    -2.70174   2.19316  -0.15056 
 1                    -2.74085   2.60848   0.72608 
 
                    Isotopes and Nuclear Properties:

  Atom         1           2           3           4           5           6           7           8           9          10
 IAtWgt=          12          12          16          12          12          12          12          14          14          14
 AtmWgt=  12.0000000  12.0000000  15.9949146  12.0000000  12.0000000  12.0000000  12.0000000  14.0030740  14.0030740  14.0030740
 IAtSpn=           0           0           0           0           0           0           0           2           2           2
 AtZEff=   0.0000000   0.0000000   0.0000000   0.0000000   0.0000000   0.0000000   0.0000000   0.0000000   0.0000000   0.0000000
 AtQMom=   0.0000000   0.0000000   0.0000000   0.0000000   0.0000000   0.0000000   0.0000000   1.5600000   1.5600000   1.5600000
 AtGFac=   0.0000000   0.0000000   0.0000000   0.0000000   0.0000000   0.0000000   0.0000000   0.4037610   0.4037610   0.4037610

  Atom        11          12          13          14          15          16          17          18          19          20
 IAtWgt=          16          16          12          12          12           1           1           1           1           1
 AtmWgt=  15.9949146  15.9949146  12.0000000  12.0000000  12.0000000   1.0078250   1.0078250   1.0078250   1.0078250   1.0078250
 IAtSpn=           0           0           0           0           0           1           1           1           1           1
 AtZEff=   0.0000000   0.0000000   0.0000000   0.0000000   0.0000000   0.0000000   0.0000000   0.0000000   0.0000000   0.0000000
 AtQMom=   0.0000000   0.0000000   0.0000000   0.0000000   0.0000000   0.0000000   0.0000000   0.0000000   0.0000000   0.0000000
 AtGFac=   0.0000000   0.0000000   0.0000000   0.0000000   0.0000000   2.7928460   2.7928460   2.7928460   2.7928460   2.7928460

  Atom        21          22          23          24          25          26          27          28          29          30
 IAtWgt=           1           1           1           1           1           1           1           1          16           1
 AtmWgt=   1.0078250   1.0078250   1.0078250   1.0078250   1.0078250   1.0078250   1.0078250   1.0078250  15.9949146   1.0078250
 IAtSpn=           1           1           1           1           1           1           1           1           0           1
 AtZEff=   0.0000000   0.0000000   0.0000000   0.0000000   0.0000000   0.0000000   0.0000000   0.0000000   0.0000000   0.0000000
 AtQMom=   0.0000000   0.0000000   0.0000000   0.0000000   0.0000000   0.0000000   0.0000000   0.0000000   0.0000000   0.0000000
 AtGFac=   2.7928460   2.7928460   2.7928460   2.7928460   2.7928460   2.7928460   2.7928460   2.7928460   0.0000000   2.7928460

  Atom        31          32
 IAtWgt=          16           1
 AtmWgt=  15.9949146   1.0078250
 IAtSpn=           0           1
 AtZEff=   0.0000000   0.0000000
 AtQMom=   0.0000000   0.0000000
 AtGFac=   0.0000000   2.7928460
 Leave Link  101 at Wed May  2 12:28:51 2012, MaxMem=  458752000 cpu:       0.1
 (Enter /usr/g03/l202.exe)
                          Input orientation:                          
 ---------------------------------------------------------------------
 Center     Atomic     Atomic              Coordinates (Angstroms)
 Number     Number      Type              X           Y           Z
 ---------------------------------------------------------------------
    1          6             0       -0.245840    2.169456    0.124200
    2          6             0        0.626935    1.140390    0.870052
    3          8             0       -0.295247    0.300551    1.570527
    4          6             0       -1.606181    0.351016    0.960773
    5          6             0       -1.540752    1.383415   -0.172470
    6          6             0        1.456602    0.277644   -0.087017
    7          6             0       -1.953988   -1.072453    0.529183
    8          7             0       -3.347353   -1.087264    0.037757
    9          7             0       -3.722732   -2.142731   -0.478400
   10          7             0       -4.189216   -3.058489   -0.978580
   11          8             0        1.148752    0.070715   -1.252639
   12          8             0        2.518163   -0.249822    0.522162
   13          6             0        3.364191   -1.173322   -0.243144
   14          6             0        3.971430   -2.121665    0.779804
   15          6             0        4.394316   -0.368554   -1.026830
   16          1             0        4.594392   -1.575246    1.495982
   17          1             0        4.597967   -2.863468    0.273092
   18          1             0        3.189793   -2.650085    1.334090
   19          1             0        2.708182   -1.711387   -0.932672
   20          1             0        3.904038    0.299720   -1.740079
   21          1             0        5.047933   -1.046111   -1.587171
   22          1             0        5.015372    0.227356   -0.349217
   23          1             0       -1.432877    0.878771   -1.143756
   24          1             0       -1.841436   -1.742579    1.391479
   25          1             0       -1.255131   -1.398933   -0.252531
   26          1             0        1.292947    1.591902    1.610188
   27          1             0       -0.501582    2.975565    0.819605
   28          1             0       -2.324037    0.695489    1.713984
   29          8             0        0.341440    2.787216   -0.999629
   30          1             0       -0.330833    3.399814   -1.350717
   31          8             0       -2.701738    2.193158   -0.150559
   32          1             0       -2.740847    2.608482    0.726079
 ---------------------------------------------------------------------
                    Distance matrix (angstroms):
                    1          2          3          4          5
     1  C    0.000000
     2  C    1.541755   0.000000
     3  O    2.363707   1.430529   0.000000
     4  C    2.420146   2.370263   1.446684   0.000000
     5  C    1.543590   2.417598   2.400399   1.534395   0.000000
     6  C    2.553796   1.532534   2.411836   3.237883   3.195960
     7  C    3.686700   3.416728   2.391853   1.527581   2.587348
     8  N    4.498120   4.631428   3.686566   2.439731   3.067940
     9  N    5.571971   5.613983   4.681387   3.573483   4.157924
    10  N    6.640613   6.651566   5.739694   4.696582   5.233993
    11  O    2.871461   2.433581   3.179343   3.545055   3.181726
    12  O    3.694725   2.372859   3.052418   4.190895   4.429985
    13  C    4.933703   3.753004   4.342026   5.336443   5.531760
    14  C    6.052182   4.672772   4.969598   6.103822   6.601255
    15  C    5.412708   4.479758   5.402404   6.361942   6.246948
    16  H    6.271557   4.848421   5.237627   6.514909   7.012660
    17  H    6.986770   5.670656   5.969748   7.021201   7.477861
    18  H    6.041141   4.599051   4.572489   5.669862   6.396632
    19  H    4.990407   3.964093   4.397100   5.143187   5.311228
    20  H    4.918632   4.273045   5.347346   6.136754   5.768668
    21  H    6.425939   5.510350   6.350916   7.260938   7.163431
    22  H    5.628164   4.645280   5.647429   6.751024   6.659615
    23  H    2.163940   2.892524   2.999312   2.176603   1.099863
    24  H    4.410889   3.830960   2.568490   2.150347   3.508302
    25  H    3.727465   3.354180   2.670798   2.158162   2.798115
    26  H    2.215760   1.093269   2.047320   3.219702   3.354279
    27  H    1.094899   2.154986   2.786065   2.851022   2.144535
    28  H    3.003147   3.101354   2.071846   1.096041   2.155339
    29  O    1.410502   2.507838   3.632434   3.683948   2.489477
    30  H    1.922598   3.309703   4.259151   4.032948   2.630216
    31  O    2.471334   3.637311   3.512164   2.414289   1.415646
    32  H    2.603855   3.676680   3.467073   2.537460   1.936080
                    6          7          8          9         10
     6  C    0.000000
     7  C    3.719488   0.000000
     8  N    4.995651   1.477560   0.000000
     9  N    5.730349   2.299820   1.233425   0.000000
    10  N    6.618151   3.348721   2.372215   1.142979   0.000000
    11  O    1.223219   3.756157   4.818817   5.406491   6.193620
    12  O    1.332753   4.547187   5.944765   6.597954   7.424942
    13  C    2.401786   5.374913   6.717971   7.156785   7.819762
    14  C    3.582237   6.022810   7.428674   7.796387   8.400339
    15  C    3.151346   6.574010   7.847505   8.326761   8.995282
    16  H    3.973011   6.638432   8.089243   8.567075   9.245282
    17  H    4.456954   6.797164   8.144838   8.385597   8.878023
    18  H    3.687152   5.440154   6.845229   7.164184   7.743708
    19  H    2.497565   4.927584   6.164476   6.461352   7.027865
    20  H    2.953480   6.430309   7.593885   8.107097   8.795352
    21  H    4.111015   7.314817   8.551194   8.908227   9.473382
    22  H    3.568770   7.143743   8.474264   9.054748   9.793739
    23  H    3.134827   2.622510   2.987722   3.849105   4.809023
    24  H    4.140568   1.097858   2.128330   2.682507   3.586205
    25  H    3.192460   1.098211   2.135134   2.587143   3.448206
    26  H    2.152803   4.337043   5.584161   6.592929   7.640809
    27  H    3.454740   4.310485   5.021581   6.185271   7.296706
    28  H    4.208495   2.160164   2.652380   3.849466   4.982082
    29  O    2.893855   4.743764   5.449308   6.410425   7.395915
    30  H    3.813110   5.115645   5.582215   6.556350   7.532283
    31  O    4.578758   3.418391   3.348649   4.466525   5.520689
    32  H    4.869549   3.769244   3.807910   4.998889   6.092470
                   11         12         13         14         15
    11  O    0.000000
    12  O    2.264498   0.000000
    13  C    2.734022   1.467756   0.000000
    14  C    4.111553   2.383728   1.521353   0.000000
    15  C    3.282930   2.435862   1.524130   2.552676   0.000000
    16  H    4.704948   2.648736   2.167832   1.095247   2.803697
    17  H    4.778532   3.349443   2.155295   1.095252   2.820615
    18  H    4.273145   2.621369   2.167697   1.094266   3.497171
    19  H    2.389579   2.070947   1.093303   2.167187   2.157571
    20  H    2.807426   2.709314   2.168433   3.495348   1.093475
    21  H    4.069745   3.388672   2.158142   2.813938   1.095573
    22  H    3.973847   2.687574   2.167844   2.807562   1.095435
    23  H    2.707327   4.433929   5.294719   6.473734   5.960341
    24  H    4.384133   4.689364   5.485854   5.857240   6.827940
    25  H    2.989772   4.019745   4.624838   5.376337   5.794607
    26  H    3.245086   2.465137   3.920632   4.653428   4.518378
    27  H    3.931406   4.428369   5.769480   6.781679   6.209853
    28  H    4.609930   5.075525   6.299106   6.960025   7.333520
    29  O    2.845197   4.034547   5.039361   6.359271   5.136675
    30  H    3.644405   4.994427   5.982766   7.316783   6.052482
    31  O    4.532727   5.802419   6.938102   8.000903   7.595012
    32  H    5.048224   5.989046   7.246580   8.211689   7.927546
                   16         17         18         19         20
    16  H    0.000000
    17  H    1.776229   0.000000
    18  H    1.776059   1.776008   0.000000
    19  H    3.078097   2.520406   2.500263   0.000000
    20  H    3.803180   3.813155   4.319955   2.475183   0.000000
    21  H    3.160936   2.639287   3.815650   2.519007   1.772890
    22  H    2.613687   3.180360   3.800780   3.069572   1.781796
    23  H    7.022705   7.237603   6.321521   4.888951   5.401256
    24  H    6.438851   6.631221   5.112742   5.108980   6.854788
    25  H    6.107807   6.056393   4.882632   4.033369   5.631629
    26  H    4.576397   5.706251   4.654966   4.402357   4.439799
    27  H    6.865589   7.771640   6.748250   5.944794   5.755138
    28  H    7.284808   7.915585   6.460612   6.174226   7.132749
    29  O    6.583825   7.188051   6.566856   5.083638   4.407721
    30  H    7.557298   8.133789   7.496951   5.961103   5.262729
    31  O    8.375290   8.890143   7.769899   6.717470   7.053223
    32  H    8.479508   9.165458   7.949509   7.148751   7.454315
                   21         22         23         24         25
    21  H    0.000000
    22  H    1.776319   0.000000
    23  H    6.775152   6.529590   0.000000
    24  H    7.537959   7.343465   3.669579   0.000000
    25  H    6.452470   6.478686   2.452307   1.778936   0.000000
    26  H    5.593044   4.422409   3.939909   4.581589   4.348278
    27  H    7.263853   6.273403   3.019709   4.937928   4.566568
    28  H    8.262974   7.638251   2.999073   2.506210   3.065346
    29  O    6.098416   5.368571   2.609815   5.567889   4.542140
    30  H    6.982355   6.296777   2.759165   6.020446   5.008823
    31  O    8.521392   7.966030   2.079438   4.313702   3.873782
    32  H    8.909112   8.184434   2.863384   4.492597   4.384564
                   26         27         28         29         30
    26  H    0.000000
    27  H    2.399975   0.000000
    28  H    3.727855   3.052868   0.000000
    29  O    3.024117   2.013895   4.340943   0.000000
    30  H    3.830426   2.217981   4.547376   0.974931   0.000000
    31  O    4.406727   2.528649   2.421196   3.214772   2.918491
    32  H    4.252832   2.271080   2.192995   3.537020   3.278331
                   31         32
    31  O    0.000000
    32  H    0.970834   0.000000
 Stoichiometry    C9H15N3O5
 Framework group  C1[X(C9H15N3O5)]
 Deg. of freedom    90
 Full point group                 C1      NOp   1
 Largest Abelian subgroup         C1      NOp   1
 Largest concise Abelian subgroup C1      NOp   1
                         Standard orientation:                         
 ---------------------------------------------------------------------
 Center     Atomic     Atomic              Coordinates (Angstroms)
 Number     Number      Type              X           Y           Z
 ---------------------------------------------------------------------
    1          6             0       -0.245840    2.169456    0.124200
    2          6             0        0.626935    1.140390    0.870052
    3          8             0       -0.295247    0.300551    1.570527
    4          6             0       -1.606181    0.351016    0.960773
    5          6             0       -1.540752    1.383415   -0.172470
    6          6             0        1.456602    0.277644   -0.087017
    7          6             0       -1.953988   -1.072453    0.529183
    8          7             0       -3.347353   -1.087264    0.037757
    9          7             0       -3.722732   -2.142731   -0.478400
   10          7             0       -4.189216   -3.058489   -0.978580
   11          8             0        1.148752    0.070715   -1.252639
   12          8             0        2.518163   -0.249822    0.522162
   13          6             0        3.364191   -1.173322   -0.243144
   14          6             0        3.971430   -2.121665    0.779804
   15          6             0        4.394316   -0.368554   -1.026830
   16          1             0        4.594392   -1.575246    1.495982
   17          1             0        4.597967   -2.863468    0.273092
   18          1             0        3.189793   -2.650085    1.334090
   19          1             0        2.708182   -1.711387   -0.932672
   20          1             0        3.904038    0.299720   -1.740079
   21          1             0        5.047933   -1.046111   -1.587171
   22          1             0        5.015372    0.227356   -0.349217
   23          1             0       -1.432877    0.878771   -1.143756
   24          1             0       -1.841436   -1.742579    1.391479
   25          1             0       -1.255131   -1.398933   -0.252531
   26          1             0        1.292947    1.591902    1.610188
   27          1             0       -0.501582    2.975565    0.819605
   28          1             0       -2.324037    0.695489    1.713984
   29          8             0        0.341440    2.787216   -0.999629
   30          1             0       -0.330833    3.399814   -1.350717
   31          8             0       -2.701738    2.193158   -0.150559
   32          1             0       -2.740847    2.608482    0.726079
 ---------------------------------------------------------------------
 Rotational constants (GHZ):      0.6126849      0.2731145      0.2162718
 Leave Link  202 at Wed May  2 12:28:54 2012, MaxMem=  458752000 cpu:       0.1
 (Enter /usr/g03/l301.exe)
 Standard basis: 6-311+G(d,p) (5D, 7F)
 There are   464 symmetry adapted basis functions of A   symmetry.
 Integral buffers will be    131072 words long.
 Raffenetti 2 integral format.
 Two-electron integral symmetry is turned on.
   464 basis functions,   732 primitive gaussians,   481 cartesian basis functions
    65 alpha electrons       65 beta electrons
       nuclear repulsion energy      1291.1832231407 Hartrees.
 IExCor= 402 DFT=T Ex=B+HF Corr=LYP ExCW=0 ScaHFX=  0.200000
 ScaDFX=  0.800000  0.720000  1.000000  0.810000
 IRadAn=      0 IRanWt=     -1 IRanGd=            0 ICorTp=0
 NAtoms=   32 NActive=   32 NUniq=   32 SFac= 1.00D+00 NAtFMM=   60 Big=F
 Leave Link  301 at Wed May  2 12:28:58 2012, MaxMem=  458752000 cpu:       0.0
 (Enter /usr/g03/l302.exe)
 NPDir=0 NMtPBC=     1 NCelOv=     1 NCel=       1 NClECP=     1 NCelD=      1
         NCelK=      1 NCelE2=     1 NClLst=     1 CellRange=     0.0.
 One-electron integrals computed using PRISM.
 NBasis=   464 RedAO= T  NBF=   464
 NBsUse=   464 1.00D-06 NBFU=   464
 Precomputing XC quadrature grid using
 IXCGrd= 2 IRadAn=           0 IRanWt=          -1 IRanGd=           0.
 NRdTot=    2074 NPtTot=      264996 NUsed=      279643 NTot=      279675
 NSgBfM=   479   479   479   479.
 Leave Link  302 at Wed May  2 12:29:03 2012, MaxMem=  458752000 cpu:       2.9
 (Enter /usr/g03/l308.exe)
 Leave Link  308 at Wed May  2 12:29:07 2012, MaxMem=  458752000 cpu:       0.3
 (Enter /usr/g03/l303.exe)
 DipDrv:  MaxL=1.
 Leave Link  303 at Wed May  2 12:29:10 2012, MaxMem=  458752000 cpu:       0.1
 (Enter /usr/g03/l401.exe)
 Harris functional with IExCor=  402 diagonalized for initial guess.
 ExpMin= 4.38D-02 ExpMax= 8.59D+03 ExpMxC= 1.30D+03 IAcc=2 IRadAn=         4 AccDes= 0.00D+00
 HarFok:  IExCor= 402 AccDes= 0.00D+00 IRadAn=         4 IDoV=1
 ScaDFX=  1.000000  1.000000  1.000000  1.000000
 Harris En= -892.730855791434    
 Initial guess orbital symmetries:
       Occupied  (A) (A) (A) (A) (A) (A) (A) (A) (A) (A) (A) (A)
                 (A) (A) (A) (A) (A) (A) (A) (A) (A) (A) (A) (A)
                 (A) (A) (A) (A) (A) (A) (A) (A) (A) (A) (A) (A)
                 (A) (A) (A) (A) (A) (A) (A) (A) (A) (A) (A) (A)
                 (A) (A) (A) (A) (A) (A) (A) (A) (A) (A) (A) (A)
                 (A) (A) (A) (A) (A)
       Virtual   (A) (A) (A) (A) (A) (A) (A) (A) (A) (A) (A) (A)
                 (A) (A) (A) (A) (A) (A) (A) (A) (A) (A) (A) (A)
                 (A) (A) (A) (A) (A) (A) (A) (A) (A) (A) (A) (A)
                 (A) (A) (A) (A) (A) (A) (A) (A) (A) (A) (A) (A)
                 (A) (A) (A) (A) (A) (A) (A) (A) (A) (A) (A) (A)
                 (A) (A) (A) (A) (A) (A) (A) (A) (A) (A) (A) (A)
                 (A) (A) (A) (A) (A) (A) (A) (A) (A) (A) (A) (A)
                 (A) (A) (A) (A) (A) (A) (A) (A) (A) (A) (A) (A)
                 (A) (A) (A) (A) (A) (A) (A) (A) (A) (A) (A) (A)
                 (A) (A) (A) (A) (A) (A) (A) (A) (A) (A) (A) (A)
                 (A) (A) (A) (A) (A) (A) (A) (A) (A) (A) (A) (A)
                 (A) (A) (A) (A) (A) (A) (A) (A) (A) (A) (A) (A)
                 (A) (A) (A) (A) (A) (A) (A) (A) (A) (A) (A) (A)
                 (A) (A) (A) (A) (A) (A) (A) (A) (A) (A) (A) (A)
                 (A) (A) (A) (A) (A) (A) (A) (A) (A) (A) (A) (A)
                 (A) (A) (A) (A) (A) (A) (A) (A) (A) (A) (A) (A)
                 (A) (A) (A) (A) (A) (A) (A) (A) (A) (A) (A) (A)
                 (A) (A) (A) (A) (A) (A) (A) (A) (A) (A) (A) (A)
                 (A) (A) (A) (A) (A) (A) (A) (A) (A) (A) (A) (A)
                 (A) (A) (A) (A) (A) (A) (A) (A) (A) (A) (A) (A)
                 (A) (A) (A) (A) (A) (A) (A) (A) (A) (A) (A) (A)
                 (A) (A) (A) (A) (A) (A) (A) (A) (A) (A) (A) (A)
                 (A) (A) (A) (A) (A) (A) (A) (A) (A) (A) (A) (A)
                 (A) (A) (A) (A) (A) (A) (A) (A) (A) (A) (A) (A)
                 (A) (A) (A) (A) (A) (A) (A) (A) (A) (A) (A) (A)
                 (A) (A) (A) (A) (A) (A) (A) (A) (A) (A) (A) (A)
                 (A) (A) (A) (A) (A) (A) (A) (A) (A) (A) (A) (A)
                 (A) (A) (A) (A) (A) (A) (A) (A) (A) (A) (A) (A)
                 (A) (A) (A) (A) (A) (A) (A) (A) (A) (A) (A) (A)
                 (A) (A) (A) (A) (A) (A) (A) (A) (A) (A) (A) (A)
                 (A) (A) (A) (A) (A) (A) (A) (A) (A) (A) (A) (A)
                 (A) (A) (A) (A) (A) (A) (A) (A) (A) (A) (A) (A)
                 (A) (A) (A) (A) (A) (A) (A) (A) (A) (A) (A) (A)
                 (A) (A) (A)
 The electronic state of the initial guess is 1-A.
 Leave Link  401 at Wed May  2 12:29:35 2012, MaxMem=  458752000 cpu:      43.0
 (Enter /usr/g03/l502.exe)
 Closed shell SCF:
 Requested convergence on RMS density matrix=1.00D-08 within 128 cycles.
 Requested convergence on MAX density matrix=1.00D-06.
 Requested convergence on             energy=1.00D-06.
 No special actions if energy rises.
 Using DIIS extrapolation, IDIIS=  1040.
 Integral symmetry usage will be decided dynamically.
       279642 words used for storage of precomputed grid.
 IEnd=   1112254 IEndB=   1112254 NGot= 458752000 MDV= 457888229
 LenX= 457888229
 Fock matrices will be formed incrementally for  20 cycles.

 Cycle   1  Pass 1  IDiag  1:
 Petite list used in FoFDir.
 MinBra= 0 MaxBra= 2 Meth= 1.
 IRaf=       0 NMat=   1 IRICut=       1 DoRegI=T DoRafI=F ISym2E= 1 JSym2E=1.
 E= -892.022626816692    
 DIIS: error= 4.36D-02 at cycle   1 NSaved=   1.
 NSaved= 1 IEnMin= 1 EnMin= -892.022626816692     IErMin= 1 ErrMin= 4.36D-02
 ErrMax= 4.36D-02 EMaxC= 1.00D-01 BMatC= 6.69D-01 BMatP= 6.69D-01
 IDIUse=3 WtCom= 5.64D-01 WtEn= 4.36D-01
 Coeff-Com:  0.100D+01
 Coeff-En:   0.100D+01
 Coeff:      0.100D+01
 Gap=     0.241 Goal=   None    Shift=    0.000
 GapD=    0.241 DampG=1.000 DampE=0.500 DampFc=0.5000 IDamp=-1.
 Damping current iteration by 5.00D-01
 RMSDP=2.52D-02 MaxDP=3.73D+00              OVMax= 2.21D-01

 Cycle   2  Pass 1  IDiag  1:
 RMSU=  1.03D-02    CP:  1.32D+00
 E= -892.174601871716     Delta-E=       -0.151975055024 Rises=F Damp=T
 DIIS: error= 8.32D-03 at cycle   2 NSaved=   2.
 NSaved= 2 IEnMin= 2 EnMin= -892.174601871716     IErMin= 2 ErrMin= 8.32D-03
 ErrMax= 8.32D-03 EMaxC= 1.00D-01 BMatC= 7.94D-02 BMatP= 6.69D-01
 IDIUse=3 WtCom= 9.17D-01 WtEn= 8.32D-02
 Coeff-Com:  0.189D+00 0.811D+00
 Coeff-En:   0.327D+00 0.673D+00
 Coeff:      0.200D+00 0.800D+00
 Gap=     0.270 Goal=   None    Shift=    0.000
 RMSDP=6.79D-03 MaxDP=1.05D+00 DE=-1.52D-01 OVMax= 1.48D-01

 Cycle   3  Pass 1  IDiag  1:
 RMSU=  3.88D-03    CP:  1.22D+00  5.00D-01
 E= -892.474639040584     Delta-E=       -0.300037168868 Rises=F Damp=F
 DIIS: error= 1.24D-02 at cycle   3 NSaved=   3.
 NSaved= 3 IEnMin= 3 EnMin= -892.474639040584     IErMin= 2 ErrMin= 8.32D-03
 ErrMax= 1.24D-02 EMaxC= 1.00D-01 BMatC= 7.97D-02 BMatP= 7.94D-02
 IDIUse=3 WtCom= 8.76D-01 WtEn= 1.24D-01
 Coeff-Com:  0.572D-01 0.501D+00 0.441D+00
 Coeff-En:   0.000D+00 0.000D+00 0.100D+01
 Coeff:      0.501D-01 0.439D+00 0.511D+00
 Gap=     0.216 Goal=   None    Shift=    0.000
 RMSDP=2.30D-03 MaxDP=2.55D-01 DE=-3.00D-01 OVMax= 1.00D-01

 Cycle   4  Pass 1  IDiag  1:
 RMSU=  1.65D-03    CP:  1.27D+00  6.03D-01  8.64D-01
 E= -892.512203621713     Delta-E=       -0.037564581129 Rises=F Damp=F
 DIIS: error= 1.31D-02 at cycle   4 NSaved=   4.
 NSaved= 4 IEnMin= 4 EnMin= -892.512203621713     IErMin= 2 ErrMin= 8.32D-03
 ErrMax= 1.31D-02 EMaxC= 1.00D-01 BMatC= 3.31D-02 BMatP= 7.94D-02
 IDIUse=3 WtCom= 8.69D-01 WtEn= 1.31D-01
 Coeff-Com:  0.115D-01 0.219D+00 0.380D+00 0.390D+00
 Coeff-En:   0.000D+00 0.000D+00 0.331D+00 0.669D+00
 Coeff:      0.997D-02 0.190D+00 0.373D+00 0.426D+00
 Gap=     0.223 Goal=   None    Shift=    0.000
 RMSDP=9.92D-04 MaxDP=1.21D-01 DE=-3.76D-02 OVMax= 6.55D-02

 Cycle   5  Pass 1  IDiag  1:
 RMSU=  5.61D-04    CP:  1.25D+00  5.66D-01  9.01D-01  6.44D-01
 E= -892.532851896862     Delta-E=       -0.020648275149 Rises=F Damp=F
 DIIS: error= 7.70D-03 at cycle   5 NSaved=   5.
 NSaved= 5 IEnMin= 5 EnMin= -892.532851896862     IErMin= 5 ErrMin= 7.70D-03
 ErrMax= 7.70D-03 EMaxC= 1.00D-01 BMatC= 6.46D-03 BMatP= 3.31D-02
 IDIUse=3 WtCom= 9.23D-01 WtEn= 7.70D-02
 Coeff-Com:  0.560D-05 0.810D-01 0.226D+00 0.338D+00 0.355D+00
 Coeff-En:   0.000D+00 0.000D+00 0.000D+00 0.204D+00 0.796D+00
 Coeff:      0.517D-05 0.748D-01 0.209D+00 0.328D+00 0.389D+00
 Gap=     0.219 Goal=   None    Shift=    0.000
 RMSDP=4.61D-04 MaxDP=3.87D-02 DE=-2.06D-02 OVMax= 3.26D-02

 Cycle   6  Pass 1  IDiag  1:
 RMSU=  2.79D-04    CP:  1.24D+00  5.64D-01  8.79D-01  6.18D-01  5.72D-01
 E= -892.537552819931     Delta-E=       -0.004700923069 Rises=F Damp=F
 DIIS: error= 2.72D-03 at cycle   6 NSaved=   6.
 NSaved= 6 IEnMin= 6 EnMin= -892.537552819931     IErMin= 6 ErrMin= 2.72D-03
 ErrMax= 2.72D-03 EMaxC= 1.00D-01 BMatC= 9.77D-04 BMatP= 6.46D-03
 IDIUse=3 WtCom= 9.73D-01 WtEn= 2.72D-02
 Coeff-Com: -0.219D-02 0.239D-01 0.932D-01 0.174D+00 0.302D+00 0.409D+00
 Coeff-En:   0.000D+00 0.000D+00 0.000D+00 0.000D+00 0.175D+00 0.825D+00
 Coeff:     -0.213D-02 0.233D-01 0.907D-01 0.170D+00 0.299D+00 0.420D+00
 Gap=     0.222 Goal=   None    Shift=    0.000
 RMSDP=1.34D-04 MaxDP=9.77D-03 DE=-4.70D-03 OVMax= 9.88D-03

 Cycle   7  Pass 1  IDiag  1:
 RMSU=  9.61D-05    CP:  1.24D+00  5.65D-01  8.72D-01  6.31D-01  6.10D-01
                    CP:  7.01D-01
 E= -892.538308203971     Delta-E=       -0.000755384040 Rises=F Damp=F
 DIIS: error= 3.68D-04 at cycle   7 NSaved=   7.
 NSaved= 7 IEnMin= 7 EnMin= -892.538308203971     IErMin= 7 ErrMin= 3.68D-04
 ErrMax= 3.68D-04 EMaxC= 1.00D-01 BMatC= 5.78D-05 BMatP= 9.77D-04
 IDIUse=3 WtCom= 9.96D-01 WtEn= 3.68D-03
 Coeff-Com: -0.131D-02 0.157D-03 0.153D-01 0.418D-01 0.122D+00 0.267D+00
 Coeff-Com:  0.555D+00
 Coeff-En:   0.000D+00 0.000D+00 0.000D+00 0.000D+00 0.000D+00 0.227D-01
 Coeff-En:   0.977D+00
 Coeff:     -0.130D-02 0.157D-03 0.153D-01 0.417D-01 0.122D+00 0.266D+00
 Coeff:      0.557D+00
 Gap=     0.221 Goal=   None    Shift=    0.000
 RMSDP=7.28D-05 MaxDP=7.21D-03 DE=-7.55D-04 OVMax= 1.56D-03

 Cycle   8  Pass 1  IDiag  1:
 RMSU=  3.41D-05    CP:  1.24D+00  5.65D-01  8.85D-01  6.37D-01  6.06D-01
                    CP:  7.20D-01  6.74D-01
 E= -892.538350227690     Delta-E=       -0.000042023719 Rises=F Damp=F
 DIIS: error= 9.18D-05 at cycle   8 NSaved=   8.
 NSaved= 8 IEnMin= 8 EnMin= -892.538350227690     IErMin= 8 ErrMin= 9.18D-05
 ErrMax= 9.18D-05 EMaxC= 1.00D-01 BMatC= 2.41D-06 BMatP= 5.78D-05
 IDIUse=1 WtCom= 1.00D+00 WtEn= 0.00D+00
 Coeff-Com: -0.384D-03-0.133D-02 0.222D-02 0.101D-01 0.444D-01 0.105D+00
 Coeff-Com:  0.273D+00 0.567D+00
 Coeff:     -0.384D-03-0.133D-02 0.222D-02 0.101D-01 0.444D-01 0.105D+00
 Coeff:      0.273D+00 0.567D+00
 Gap=     0.222 Goal=   None    Shift=    0.000
 RMSDP=1.23D-05 MaxDP=8.12D-04 DE=-4.20D-05 OVMax= 3.37D-04

 Cycle   9  Pass 1  IDiag  1:
 RMSU=  6.55D-06    CP:  1.24D+00  5.65D-01  8.83D-01  6.37D-01  6.15D-01
                    CP:  7.14D-01  6.73D-01  7.73D-01
 E= -892.538351967856     Delta-E=       -0.000001740166 Rises=F Damp=F
 DIIS: error= 3.24D-05 at cycle   9 NSaved=   9.
 NSaved= 9 IEnMin= 9 EnMin= -892.538351967856     IErMin= 9 ErrMin= 3.24D-05
 ErrMax= 3.24D-05 EMaxC= 1.00D-01 BMatC= 3.20D-07 BMatP= 2.41D-06
 IDIUse=1 WtCom= 1.00D+00 WtEn= 0.00D+00
 Coeff-Com: -0.229D-04-0.620D-03-0.607D-04 0.150D-02 0.130D-01 0.320D-01
 Coeff-Com:  0.937D-01 0.319D+00 0.541D+00
 Coeff:     -0.229D-04-0.620D-03-0.607D-04 0.150D-02 0.130D-01 0.320D-01
 Coeff:      0.937D-01 0.319D+00 0.541D+00
 Gap=     0.222 Goal=   None    Shift=    0.000
 RMSDP=4.65D-06 MaxDP=3.33D-04 DE=-1.74D-06 OVMax= 1.23D-04

 Cycle  10  Pass 1  IDiag  1:
 RMSU=  3.76D-06    CP:  1.24D+00  5.65D-01  8.83D-01  6.37D-01  6.13D-01
                    CP:  7.20D-01  6.76D-01  7.89D-01  7.88D-01
 E= -892.538352176270     Delta-E=       -0.000000208414 Rises=F Damp=F
 DIIS: error= 6.86D-06 at cycle  10 NSaved=  10.
 NSaved=10 IEnMin=10 EnMin= -892.538352176270     IErMin=10 ErrMin= 6.86D-06
 ErrMax= 6.86D-06 EMaxC= 1.00D-01 BMatC= 3.31D-08 BMatP= 3.20D-07
 IDIUse=1 WtCom= 1.00D+00 WtEn= 0.00D+00
 Coeff-Com:  0.225D-04-0.239D-03-0.258D-03-0.309D-03 0.215D-02 0.537D-02
 Coeff-Com:  0.173D-01 0.103D+00 0.297D+00 0.576D+00
 Coeff:      0.225D-04-0.239D-03-0.258D-03-0.309D-03 0.215D-02 0.537D-02
 Coeff:      0.173D-01 0.103D+00 0.297D+00 0.576D+00
 Gap=     0.222 Goal=   None    Shift=    0.000
 RMSDP=1.75D-06 MaxDP=1.25D-04 DE=-2.08D-07 OVMax= 3.13D-05

 Cycle  11  Pass 1  IDiag  1:
 RMSU=  1.03D-06    CP:  1.24D+00  5.65D-01  8.83D-01  6.37D-01  6.13D-01
                    CP:  7.19D-01  6.77D-01  8.12D-01  7.92D-01  9.15D-01
 E= -892.538352201990     Delta-E=       -0.000000025720 Rises=F Damp=F
 DIIS: error= 1.96D-06 at cycle  11 NSaved=  11.
 NSaved=11 IEnMin=11 EnMin= -892.538352201990     IErMin=11 ErrMin= 1.96D-06
 ErrMax= 1.96D-06 EMaxC= 1.00D-01 BMatC= 1.61D-09 BMatP= 3.31D-08
 IDIUse=1 WtCom= 1.00D+00 WtEn= 0.00D+00
 Coeff-Com:  0.114D-04-0.505D-04-0.101D-03-0.242D-03-0.519D-05 0.232D-03
 Coeff-Com:  0.576D-03 0.225D-01 0.920D-01 0.251D+00 0.634D+00
 Coeff:      0.114D-04-0.505D-04-0.101D-03-0.242D-03-0.519D-05 0.232D-03
 Coeff:      0.576D-03 0.225D-01 0.920D-01 0.251D+00 0.634D+00
 Gap=     0.222 Goal=   None    Shift=    0.000
 RMSDP=5.88D-07 MaxDP=7.34D-05 DE=-2.57D-08 OVMax= 1.01D-05

 Cycle  12  Pass 1  IDiag  1:
 RMSU=  3.48D-07    CP:  1.24D+00  5.65D-01  8.83D-01  6.37D-01  6.13D-01
                    CP:  7.19D-01  6.78D-01  8.15D-01  8.03D-01  9.09D-01
                    CP:  7.93D-01
 E= -892.538352203392     Delta-E=       -0.000000001402 Rises=F Damp=F
 DIIS: error= 4.54D-07 at cycle  12 NSaved=  12.
 NSaved=12 IEnMin=12 EnMin= -892.538352203392     IErMin=12 ErrMin= 4.54D-07
 ErrMax= 4.54D-07 EMaxC= 1.00D-01 BMatC= 1.71D-10 BMatP= 1.61D-09
 IDIUse=1 WtCom= 1.00D+00 WtEn= 0.00D+00
 Coeff-Com:  0.621D-06 0.430D-05-0.190D-04-0.763D-04-0.244D-03-0.442D-03
 Coeff-Com: -0.162D-02-0.136D-02 0.100D-01 0.478D-01 0.282D+00 0.664D+00
 Coeff:      0.621D-06 0.430D-05-0.190D-04-0.763D-04-0.244D-03-0.442D-03
 Coeff:     -0.162D-02-0.136D-02 0.100D-01 0.478D-01 0.282D+00 0.664D+00
 Gap=     0.222 Goal=   None    Shift=    0.000
 RMSDP=1.33D-07 MaxDP=1.13D-05 DE=-1.40D-09 OVMax= 4.27D-06

 Cycle  13  Pass 1  IDiag  1:
 RMSU=  7.24D-08    CP:  1.24D+00  5.65D-01  8.83D-01  6.37D-01  6.13D-01
                    CP:  7.19D-01  6.78D-01  8.15D-01  8.07D-01  9.16D-01
                    CP:  8.07D-01  8.95D-01
 E= -892.538352203528     Delta-E=       -0.000000000136 Rises=F Damp=F
 DIIS: error= 2.08D-07 at cycle  13 NSaved=  13.
 NSaved=13 IEnMin=13 EnMin= -892.538352203528     IErMin=13 ErrMin= 2.08D-07
 ErrMax= 2.08D-07 EMaxC= 1.00D-01 BMatC= 1.94D-11 BMatP= 1.71D-10
 IDIUse=1 WtCom= 1.00D+00 WtEn= 0.00D+00
 Coeff-Com: -0.104D-05 0.620D-05-0.145D-05-0.162D-04-0.116D-03-0.233D-03
 Coeff-Com: -0.778D-03-0.262D-02-0.278D-02-0.318D-03 0.739D-01 0.313D+00
 Coeff-Com:  0.620D+00
 Coeff:     -0.104D-05 0.620D-05-0.145D-05-0.162D-04-0.116D-03-0.233D-03
 Coeff:     -0.778D-03-0.262D-02-0.278D-02-0.318D-03 0.739D-01 0.313D+00
 Coeff:      0.620D+00
 Gap=     0.222 Goal=   None    Shift=    0.000
 RMSDP=6.69D-08 MaxDP=6.98D-06 DE=-1.36D-10 OVMax= 1.14D-06

 Cycle  14  Pass 1  IDiag  1:
 RMSU=  3.35D-08    CP:  1.24D+00  5.65D-01  8.83D-01  6.37D-01  6.13D-01
                    CP:  7.19D-01  6.78D-01  8.15D-01  8.07D-01  9.23D-01
                    CP:  8.34D-01  8.63D-01  7.95D-01
 E= -892.538352203538     Delta-E=       -0.000000000010 Rises=F Damp=F
 DIIS: error= 7.03D-08 at cycle  14 NSaved=  14.
 NSaved=14 IEnMin=14 EnMin= -892.538352203538     IErMin=14 ErrMin= 7.03D-08
 ErrMax= 7.03D-08 EMaxC= 1.00D-01 BMatC= 3.15D-12 BMatP= 1.94D-11
 IDIUse=1 WtCom= 1.00D+00 WtEn= 0.00D+00
 Coeff-Com: -0.602D-06 0.253D-05 0.137D-05 0.387D-06-0.316D-04-0.733D-04
 Coeff-Com: -0.194D-03-0.125D-02-0.272D-02-0.685D-02-0.305D-03 0.710D-01
 Coeff-Com:  0.326D+00 0.614D+00
 Coeff:     -0.602D-06 0.253D-05 0.137D-05 0.387D-06-0.316D-04-0.733D-04
 Coeff:     -0.194D-03-0.125D-02-0.272D-02-0.685D-02-0.305D-03 0.710D-01
 Coeff:      0.326D+00 0.614D+00
 Gap=     0.222 Goal=   None    Shift=    0.000
 RMSDP=2.18D-08 MaxDP=2.81D-06 DE=-1.00D-11 OVMax= 4.48D-07

 Cycle  15  Pass 1  IDiag  1:
 RMSU=  1.01D-08    CP:  1.24D+00  5.65D-01  8.83D-01  6.37D-01  6.13D-01
                    CP:  7.19D-01  6.78D-01  8.16D-01  8.07D-01  9.24D-01
                    CP:  8.33D-01  8.83D-01  8.38D-01  7.76D-01
 E= -892.538352203487     Delta-E=        0.000000000051 Rises=F Damp=F
 DIIS: error= 1.70D-08 at cycle  15 NSaved=  15.
 NSaved=15 IEnMin=14 EnMin= -892.538352203538     IErMin=15 ErrMin= 1.70D-08
 ErrMax= 1.70D-08 EMaxC= 1.00D-01 BMatC= 2.86D-13 BMatP= 3.15D-12
 IDIUse=1 WtCom= 1.00D+00 WtEn= 0.00D+00
 Coeff-Com: -0.647D-07 0.372D-06 0.108D-05 0.194D-05-0.378D-06-0.760D-05
 Coeff-Com:  0.562D-05-0.261D-03-0.839D-03-0.310D-02-0.100D-01-0.856D-02
 Coeff-Com:  0.656D-01 0.270D+00 0.687D+00
 Coeff:     -0.647D-07 0.372D-06 0.108D-05 0.194D-05-0.378D-06-0.760D-05
 Coeff:      0.562D-05-0.261D-03-0.839D-03-0.310D-02-0.100D-01-0.856D-02
 Coeff:      0.656D-01 0.270D+00 0.687D+00
 Gap=     0.222 Goal=   None    Shift=    0.000
 RMSDP=9.85D-09 MaxDP=1.22D-06 DE= 5.09D-11 OVMax= 1.66D-07

 Cycle  16  Pass 1  IDiag  1:
 RMSU=  6.86D-09    CP:  1.24D+00  5.65D-01  8.83D-01  6.37D-01  6.13D-01
                    CP:  7.19D-01  6.78D-01  8.16D-01  8.08D-01  9.23D-01
                    CP:  8.32D-01  8.92D-01  8.61D-01  7.93D-01  9.49D-01
 E= -892.538352204025     Delta-E=       -0.000000000538 Rises=F Damp=F
 DIIS: error= 4.66D-09 at cycle  16 NSaved=  16.
 NSaved=16 IEnMin=16 EnMin= -892.538352204025     IErMin=16 ErrMin= 4.66D-09
 ErrMax= 4.66D-09 EMaxC= 1.00D-01 BMatC= 3.23D-14 BMatP= 2.86D-13
 IDIUse=1 WtCom= 1.00D+00 WtEn= 0.00D+00
 Coeff-Com:  0.479D-07-0.599D-07 0.482D-06 0.807D-06 0.232D-05 0.210D-05
 Coeff-Com:  0.176D-04-0.187D-04-0.128D-03-0.817D-03-0.441D-02-0.965D-02
 Coeff-Com:  0.169D-02 0.719D-01 0.319D+00 0.622D+00
 Coeff:      0.479D-07-0.599D-07 0.482D-06 0.807D-06 0.232D-05 0.210D-05
 Coeff:      0.176D-04-0.187D-04-0.128D-03-0.817D-03-0.441D-02-0.965D-02
 Coeff:      0.169D-02 0.719D-01 0.319D+00 0.622D+00
 Gap=     0.222 Goal=   None    Shift=    0.000
 RMSDP=3.69D-09 MaxDP=2.08D-07 DE=-5.38D-10 OVMax= 3.82D-08

 SCF Done:  E(RB+HF-LYP) =  -892.538352204     A.U. after   16 cycles
             Convg  =    0.3688D-08             -V/T =  2.0039
             S**2   =   0.0000
 KE= 8.891007077669D+02 PE=-4.671236944538D+03 EE= 1.598414661427D+03
 Leave Link  502 at Wed May  2 12:53:43 2012, MaxMem=  458752000 cpu:    2890.2
 (Enter /usr/g03/l801.exe)
 Range of M.O.s used for correlation:     1   464
 NBasis=   464 NAE=    65 NBE=    65 NFC=     0 NFV=     0
 NROrb=    464 NOA=    65 NOB=    65 NVA=   399 NVB=   399

 **** Warning!!: The largest alpha MO coefficient is  0.16444309D+03

 Leave Link  801 at Wed May  2 12:53:47 2012, MaxMem=  458752000 cpu:       0.0
 (Enter /usr/g03/l1002.exe)
 Minotr:  Closed-shell wavefunction.
 DoAtom=TTTTTTTTTTTTTTTTTTTTTTTTTTTTTTTT
          Direct CPHF calculation.
          Solving linear equations simultaneously.
          Differentiating once with respect to magnetic field using GIAOs.
          Differentiating once with respect to nuclear magnetic moments.
          Differentiating once with respect to Fermi-contact and electric field gradient.
          Electric field/nuclear overlap derivatives assumed to be zero.
          Requested convergence is 1.0D-08 RMS, and 1.0D-07 maximum.
          Secondary convergence is 1.0D-12 RMS, and 1.0D-12 maximum.
          NewPWx=T KeepS1=F KeepF1=F KeepIn=T MapXYZ=F.
          MDV=     458751710 using IRadAn=       2.
 Generate precomputed XC quadrature information.
 Symmetry not used in FoFDir.
 MinBra= 0 MaxBra= 2 Meth= 1.
 IRaf=       0 NMat=   1 IRICut=       1 DoRegI=T DoRafI=F ISym2E= 0 JSym2E=0.
          There are  99 degrees of freedom in the 1st order CPHF.
    99 vectors were produced by pass  0.
 AX will form  99 AO Fock derivatives at one time.
    99 vectors were produced by pass  1.
    99 vectors were produced by pass  2.
    99 vectors were produced by pass  3.
    99 vectors were produced by pass  4.
    56 vectors were produced by pass  5.
    10 vectors were produced by pass  6.
 Inv2:  IOpt= 1 Iter= 1 AM= 4.93D-15 Conv= 1.00D-12.
 Inverted reduced A of dimension  561 with in-core refinement.
 Calculating GIAO nuclear magnetic shielding tensors.
 SCF GIAO Magnetic shielding tensor (ppm):
  1  C    Isotropic =    93.6443   Anisotropy =    36.9120
   XX=   109.3117   YX=    10.4035   ZX=     0.3286
   XY=    18.9669   YY=    84.7043   ZY=   -17.9744
   XZ=    -7.8051   YZ=    -3.2517   ZZ=    86.9168
   Eigenvalues:    72.7714    89.9091   118.2523
  2  C    Isotropic =   100.2893   Anisotropy =    36.1373
   XX=   108.8625   YX=     7.6560   ZX=    -7.3914
   XY=     5.9407   YY=    96.8461   ZY=   -21.6525
   XZ=   -11.7614   YZ=   -17.8092   ZZ=    95.1594
   Eigenvalues:    76.0876   100.3994   124.3808
  3  O    Isotropic =   241.1850   Anisotropy =    85.0447
   XX=   263.7273   YX=    15.5812   ZX=    25.2605
   XY=    35.4656   YY=   243.5576   ZY=   -73.3639
   XZ=    24.5092   YZ=   -58.4375   ZZ=   216.2701
   Eigenvalues:   151.4365   274.2371   297.8815
  4  C    Isotropic =    91.9237   Anisotropy =    55.8165
   XX=   119.3047   YX=    -7.7846   ZX=    20.6281
   XY=   -11.9375   YY=    71.2978   ZY=   -12.3944
   XZ=    10.3756   YZ=   -17.6877   ZZ=    85.1685
   Eigenvalues:    61.6701    84.9663   129.1347
  5  C    Isotropic =    95.8159   Anisotropy =    21.1271
   XX=   109.0424   YX=     1.4512   ZX=     1.4097
   XY=    -0.5495   YY=    98.5097   ZY=    -6.2937
   XZ=     7.7391   YZ=   -14.3504   ZZ=    79.8955
   Eigenvalues:    74.7479   102.7991   109.9006
  6  C    Isotropic =     4.7468   Anisotropy =    97.9907
   XX=   -35.2478   YX=    82.3264   ZX=    16.9288
   XY=    72.3086   YY=    11.5584   ZY=   -15.5681
   XZ=   -13.1065   YZ=    -2.2567   ZZ=    37.9299
   Eigenvalues:   -92.9851    37.1517    70.0739
  7  C    Isotropic =   124.8422   Anisotropy =    49.2012
   XX=   143.9846   YX=    12.2872   ZX=    17.2667
   XY=     9.7985   YY=   124.1351   ZY=     9.2412
   XZ=    20.6094   YZ=     9.6913   ZZ=   106.4069
   Eigenvalues:    97.6398   119.2437   157.6430
  8  N    Isotropic =   175.0121   Anisotropy =   222.9851
   XX=   113.4297   YX=    39.8191   ZX=     6.3278
   XY=   134.7183   YY=   246.6013   ZY=    86.1543
   XZ=    41.0564   YZ=    53.8170   ZZ=   165.0054
   Eigenvalues:    68.9067   132.4608   323.6689
  9  N    Isotropic =   -15.0407   Anisotropy =   519.9388
   XX=   -97.1231   YX=   184.4906   ZX=   100.3573
   XY=   156.9006   YY=   144.2835   ZY=   178.3162
   XZ=    89.1925   YZ=   184.7678   ZZ=   -92.2826
   Eigenvalues:  -191.2978  -185.4095   331.5852
 10  N    Isotropic =    18.7192   Anisotropy =   303.1231
   XX=    26.5055   YX=    99.1207   ZX=    94.2753
   XY=    58.3843   YY=    98.4255   ZY=   108.3441
   XZ=    78.9103   YZ=   122.8087   ZZ=   -68.7734
   Eigenvalues:  -141.1829   -23.4608   220.8013
 11  O    Isotropic =  -106.8671   Anisotropy =   609.5274
   XX=  -105.2334   YX=   239.7251   ZX=  -106.9151
   XY=   244.3446   YY=    92.6614   ZY=  -108.4638
   XZ=  -152.7371   YZ=  -111.1049   ZZ=  -308.0293
   Eigenvalues:  -371.5843  -248.5015   299.4845
 12  O    Isotropic =    68.4133   Anisotropy =   134.8871
   XX=   137.7194   YX=     9.9633   ZX=   -24.6469
   XY=    37.3278   YY=   109.2366   ZY=   -51.4160
   XZ=    78.1310   YZ=  -130.5116   ZZ=   -41.7160
   Eigenvalues:   -89.6110   136.5129   158.3380
 13  C    Isotropic =   108.2456   Anisotropy =    66.5837
   XX=   102.6946   YX=   -24.8081   ZX=   -34.8347
   XY=   -24.6398   YY=   121.8729   ZY=     9.4361
   XZ=   -27.5866   YZ=     9.0765   ZZ=   100.1692
   Eigenvalues:    67.7717   104.3303   152.6347
 14  C    Isotropic =   160.1305   Anisotropy =    35.9548
   XX=   153.0377   YX=   -14.3122   ZX=     4.6644
   XY=    -8.9756   YY=   162.8327   ZY=   -14.6555
   XZ=     3.6333   YZ=   -18.0993   ZZ=   164.5213
   Eigenvalues:   142.8031   153.4881   184.1004
 15  C    Isotropic =   160.8227   Anisotropy =    36.3664
   XX=   162.8011   YX=    10.6109   ZX=   -18.9549
   XY=    11.0344   YY=   163.4730   ZY=    -8.4938
   XZ=   -14.8937   YZ=    -7.3941   ZZ=   156.1939
   Eigenvalues:   142.2188   155.1823   185.0669
 16  H    Isotropic =    30.5319   Anisotropy =     6.8687
   XX=    30.6954   YX=     0.4593   ZX=     3.3267
   XY=    -0.2042   YY=    28.7322   ZY=    -0.4029
   XZ=     3.8719   YZ=     0.6764   ZZ=    32.1681
   Eigenvalues:    27.7577    28.7269    35.1110
 17  H    Isotropic =    30.8103   Anisotropy =     9.3563
   XX=    30.3506   YX=    -4.5691   ZX=    -1.3525
   XY=    -4.6125   YY=    33.7451   ZY=     0.5960
   XZ=    -0.7228   YZ=     0.2906   ZZ=    28.3353
   Eigenvalues:    26.8893    28.4939    37.0479
 18  H    Isotropic =    30.4970   Anisotropy =     8.1624
   XX=    30.1654   YX=     1.1673   ZX=    -1.2782
   XY=     1.6780   YY=    31.3267   ZY=    -4.3612
   XZ=    -2.3514   YZ=    -4.3110   ZZ=    29.9989
   Eigenvalues:    26.2160    29.3364    35.9386
 19  H    Isotropic =    26.7984   Anisotropy =     2.5471
   XX=    27.7165   YX=    -1.4647   ZX=     0.3377
   XY=    -0.4795   YY=    27.2847   ZY=     1.7901
   XZ=     1.7002   YZ=     0.7216   ZZ=    25.3939
   Eigenvalues:    24.2394    27.6593    28.4964
 20  H    Isotropic =    30.1287   Anisotropy =     6.6928
   XX=    30.4685   YX=    -0.5426   ZX=    -1.1544
   XY=    -0.9198   YY=    29.0757   ZY=    -5.1692
   XZ=     0.1877   YZ=    -3.9202   ZZ=    30.8419
   Eigenvalues:    25.1853    30.6103    34.5906
 21  H    Isotropic =    30.9355   Anisotropy =     9.5120
   XX=    32.3245   YX=    -2.7738   ZX=    -4.5883
   XY=    -1.7009   YY=    29.0416   ZY=     1.2394
   XZ=    -4.5009   YZ=     1.5927   ZZ=    31.4403
   Eigenvalues:    27.1396    28.3900    37.2768
 22  H    Isotropic =    30.9363   Anisotropy =     6.9573
   XX=    32.9017   YX=     2.9048   ZX=     1.5283
   XY=     3.6494   YY=    30.8494   ZY=     1.5451
   XZ=     0.3677   YZ=     0.3114   ZZ=    29.0579
   Eigenvalues:    28.3634    28.8711    35.5745
 23  H    Isotropic =    27.2763   Anisotropy =     1.8292
   XX=    28.0524   YX=    -1.0851   ZX=    -0.1407
   XY=     0.1345   YY=    27.6516   ZY=     1.1541
   XZ=    -0.1477   YZ=     0.3005   ZZ=    26.1249
   Eigenvalues:    25.8330    27.5001    28.4957
 24  H    Isotropic =    28.1930   Anisotropy =     3.9889
   XX=    28.6998   YX=     0.9783   ZX=     2.4694
   XY=     2.4039   YY=    28.0583   ZY=    -2.6024
   XZ=     1.5210   YZ=    -3.1648   ZZ=    27.8208
   Eigenvalues:    23.6918    30.0350    30.8523
 25  H    Isotropic =    28.5174   Anisotropy =     6.0134
   XX=    32.1952   YX=     0.3932   ZX=    -1.6700
   XY=     1.9385   YY=    27.7276   ZY=     1.5267
   XZ=    -0.0835   YZ=     1.0827   ZZ=    25.6294
   Eigenvalues:    24.7746    28.2512    32.5263
 26  H    Isotropic =    27.5260   Anisotropy =     5.1163
   XX=    29.9046   YX=     0.8531   ZX=     1.5823
   XY=     0.4124   YY=    26.6685   ZY=     2.4223
   XZ=     2.0426   YZ=     0.5673   ZZ=    26.0050
   Eigenvalues:    24.5766    27.0646    30.9369
 27  H    Isotropic =    27.9059   Anisotropy =     3.3080
   XX=    25.7200   YX=     0.7563   ZX=    -1.7704
   XY=     0.2392   YY=    28.5507   ZY=    -0.7307
   XZ=    -1.3858   YZ=     1.8528   ZZ=    29.4470
   Eigenvalues:    25.0173    28.5893    30.1112
 28  H    Isotropic =    28.5326   Anisotropy =     3.7030
   XX=    30.7000   YX=    -0.3546   ZX=    -1.1330
   XY=     0.2250   YY=    27.2316   ZY=     0.7595
   XZ=    -0.8193   YZ=     0.4268   ZZ=    27.6663
   Eigenvalues:    26.7426    27.8540    31.0013
 29  O    Isotropic =   283.0011   Anisotropy =    54.2006
   XX=   276.0230   YX=   -25.7766   ZX=    32.5631
   XY=   -29.9639   YY=   278.1798   ZY=    -4.5110
   XZ=    -3.4241   YZ=   -18.8530   ZZ=   294.8004
   Eigenvalues:   249.0648   280.8036   319.1348
 30  H    Isotropic =    30.3342   Anisotropy =    16.5170
   XX=    30.8056   YX=    -5.3743   ZX=     0.6441
   XY=    -5.5174   YY=    32.8430   ZY=    -8.4041
   XZ=     2.7360   YZ=    -7.5190   ZZ=    27.3541
   Eigenvalues:    21.2703    28.3868    41.3456
 31  O    Isotropic =   251.5558   Anisotropy =   124.4384
   XX=   213.4178   YX=   -14.8539   ZX=    -1.5312
   XY=   -33.1128   YY=   255.9529   ZY=    56.6267
   XZ=   -24.7639   YZ=    56.9512   ZZ=   285.2969
   Eigenvalues:   199.2340   220.9188   334.5147
 32  H    Isotropic =    32.3323   Anisotropy =    14.3224
   XX=    30.2975   YX=    -5.0034   ZX=    -2.5214
   XY=    -3.7624   YY=    31.0931   ZY=     7.2175
   XZ=    -2.0112   YZ=     5.6593   ZZ=    35.6063
   Eigenvalues:    25.1878    29.9286    41.8806
          There are 224 degrees of freedom in the 1st order CPHF.
   192 vectors were produced by pass  0.
   192 vectors were produced by pass  1.
   192 vectors were produced by pass  2.
   192 vectors were produced by pass  3.
   192 vectors were produced by pass  4.
   164 vectors were produced by pass  5.
    95 vectors were produced by pass  6.
    19 vectors were produced by pass  7.
     2 vectors were produced by pass  8.
 Inv2:  IOpt= 1 Iter= 1 AM= 1.47D-14 Conv= 1.00D-12.
 Inverted reduced A of dimension 1240 with in-core refinement.
 There are a total of      264120 grid points.
 ElSum from density=      260.0000521656
 Fermi Contact (FC) contribution to K (Hz):
                1             2             3             4             5
      1  0.000000D+00
      2  0.212114D+02  0.000000D+00
      3 -0.587666D+00 -0.241110D+02  0.000000D+00
      4  0.336141D+01 -0.406581D+00 -0.225853D+02  0.000000D+00
      5  0.180726D+02  0.155131D+01 -0.838582D+00  0.178885D+02  0.000000D+00
      6 -0.226282D+00  0.322237D+02  0.272140D+01 -0.617669D-01 -0.117115D+00
      7  0.565157D+00  0.333190D+00  0.855649D+01  0.230713D+02  0.483831D+00
      8 -0.213246D+00  0.189266D+00  0.558597D+01  0.142600D+02 -0.394381D-01
      9  0.295579D-01  0.710238D-01  0.865882D+00  0.660115D+01 -0.151928D+00
     10 -0.207685D-02  0.294082D-03  0.613806D-02 -0.271194D-01 -0.818512D-02
     11 -0.691666D-01  0.228660D+01  0.147647D+00 -0.464911D-01  0.658276D+00
     12  0.178569D+01  0.170377D+02 -0.494796D-01  0.627699D-01  0.246215D+00
     13  0.202659D+00  0.591349D+00 -0.333220D-01  0.404984D-02 -0.864480D-02
     14 -0.610539D-03 -0.200900D-01  0.146630D-01  0.177888D-02 -0.885595D-03
     15 -0.106738D-02 -0.997017D-01  0.111848D+00  0.904000D-03 -0.242351D-02
     16 -0.633501D-03  0.205251D-01  0.729569D-03 -0.148278D-04  0.680413D-03
     17  0.463898D-02  0.855787D-01  0.551239D-02  0.373707D-03  0.775416D-03
     18  0.663730D-03  0.422597D-02 -0.322403D-04 -0.834567D-04  0.161870D-03
     19 -0.429773D-02 -0.307845D-01  0.228785D-01  0.209163D-03  0.162855D-02
     20  0.385081D-03  0.150011D-01 -0.206479D-02  0.123919D-05  0.385804D-03
     21  0.822455D-02  0.541096D-01  0.317704D-02 -0.630104D-04  0.722477D-04
     22  0.290456D-03  0.113191D-01 -0.246640D-02 -0.560009D-05  0.336612D-04
     23 -0.430168D+00 -0.194101D-01  0.489549D-01 -0.180723D+00  0.195265D+02
     24  0.133768D+00 -0.178456D-01  0.320355D+00 -0.586653D+00  0.853225D+00
     25 -0.103598D-01 -0.121772D-01  0.646877D-01 -0.579842D+00  0.484817D+00
     26 -0.991863D-01  0.188510D+02  0.258724D+01  0.640505D+00  0.603760D+00
     27  0.164818D+02 -0.178593D+00 -0.465171D-01 -0.104526D-01 -0.495824D+00
     28 -0.195874D-01  0.341909D+00  0.197501D+01  0.184347D+02 -0.420747D+00
     29 -0.210422D+02  0.822668D+01 -0.225995D+01  0.101511D+01  0.599051D+00
     30 -0.335853D+00  0.121757D+01 -0.639355D-01 -0.271870D-01  0.433100D-01
     31 -0.455418D+00  0.170890D+00 -0.102177D+01  0.242122D+00 -0.213207D+02
     32  0.117559D+00 -0.283327D-01 -0.327416D-03  0.122221D+00 -0.437563D+00
                6             7             8             9            10
      6  0.000000D+00
      7 -0.202457D-01  0.000000D+00
      8 -0.544489D-01 -0.849897D+01  0.000000D+00
      9 -0.166779D-01 -0.144694D+01 -0.320267D+02  0.000000D+00
     10  0.133835D-02  0.975965D+00 -0.100234D+02 -0.234971D+02  0.000000D+00
     11 -0.218331D+02  0.192594D+00 -0.138102D-01 -0.619415D-02  0.790729D-02
     12 -0.297637D+02  0.137532D-01  0.294170D-02 -0.106597D-02  0.559915D-03
     13 -0.118848D+01 -0.531347D-02 -0.120088D-02 -0.191256D-03  0.441656D-04
     14  0.151874D+01  0.128588D-02 -0.114208D-03 -0.397389D-04  0.214843D-04
     15  0.113660D+00 -0.799976D-03  0.217643D-02  0.262217D-03  0.139996D-04
     16 -0.416905D-01  0.654806D-04 -0.447195D-04 -0.767199D-05  0.407523D-05
     17  0.126347D+00  0.177997D-03 -0.196426D-03 -0.363794D-04  0.580605D-05
     18 -0.191732D-01  0.632393D-04 -0.698711D-04  0.454557D-04  0.306412D-04
     19  0.396314D+00 -0.193348D-03  0.285069D-03  0.180302D-03  0.697557D-04
     20 -0.736022D-02  0.113456D-03  0.295428D-04  0.457481D-05  0.454330D-05
     21 -0.321437D-01  0.290026D-03  0.300635D-03  0.152250D-04  0.534961D-05
     22 -0.176393D-01 -0.643560D-05 -0.362177D-05  0.128417D-04  0.829398D-05
     23 -0.175888D-01  0.612108D+00  0.138010D-02  0.493895D-02  0.871376D-03
     24  0.575931D-02  0.172463D+02 -0.361418D+00  0.228129D+00  0.149355D+00
     25  0.343976D-04  0.170925D+02 -0.386062D+00  0.548563D+00  0.105492D+00
     26 -0.387104D+00  0.243452D-01  0.191020D+00  0.299794D-01  0.329893D-02
     27  0.106517D+01 -0.276621D-01  0.264691D-01  0.118390D-02  0.730315D-03
     28  0.785339D-01 -0.163690D+00  0.175132D+00 -0.105426D+00 -0.568361D-02
     29 -0.495428D+00 -0.136511D-03 -0.168143D-01 -0.293542D-02  0.141599D-02
     30 -0.655357D-01  0.135007D-01 -0.136598D-02 -0.663528D-04  0.108799D-04
     31  0.100865D-01  0.454823D+00  0.126244D+01  0.182098D+00  0.200832D-01
     32 -0.514167D-03 -0.107160D-01 -0.397585D-02 -0.283475D-02 -0.100864D-03
               11            12            13            14            15
     11  0.000000D+00
     12 -0.201291D+01  0.000000D+00
     13  0.178912D+01 -0.225149D+02  0.000000D+00
     14  0.553907D-03  0.824027D+01  0.200077D+02  0.000000D+00
     15  0.103192D+00  0.174885D+01  0.189384D+02  0.582481D+00  0.000000D+00
     16  0.677951D-01  0.304623D+00 -0.781730D+00  0.153678D+02  0.414887D+00
     17  0.845518D-03  0.280423D+01  0.263270D+00  0.147565D+02  0.124701D+00
     18  0.316494D-02  0.427652D+00 -0.642526D+00  0.154631D+02  0.112967D+01
     19  0.613616D-01  0.257169D+00  0.180266D+02 -0.695337D-01 -0.758976D-01
     20  0.487636D-01  0.167722D+00 -0.641957D+00  0.118198D+01  0.157471D+02
     21  0.306634D-02  0.149723D+01  0.195744D+00  0.133645D+00  0.147467D+02
     22 -0.659263D-03  0.287776D+00 -0.742625D+00  0.423302D+00  0.153077D+02
     23  0.101765D+00 -0.221260D-02  0.230774D-02 -0.166054D-03  0.112194D-04
     24  0.421798D-02  0.194228D-02  0.123895D-03  0.000000D+00  0.175951D-03
     25  0.438966D-01 -0.849914D-04  0.929237D-03 -0.568178D-05  0.222572D-04
     26  0.420409D+00  0.488990D-01  0.114193D-01 -0.108272D-02  0.860052D-02
     27 -0.137097D-01  0.207715D+00  0.184750D-01  0.148874D-02  0.258589D-02
     28  0.131284D-01  0.583144D-02  0.214673D-02  0.305251D-03  0.623479D-03
     29  0.308506D+01 -0.219297D+00 -0.110029D-01 -0.548492D-03  0.213249D-02
     30  0.377021D-01  0.283288D-01  0.979833D-04 -0.150992D-03  0.108252D-04
     31  0.373103D+00  0.710434D-01 -0.380359D-02 -0.228028D-03  0.181673D-02
     32  0.373284D-01 -0.605928D-02  0.451625D-03  0.213760D-05 -0.119326D-03
               16            17            18            19            20
     16  0.000000D+00
     17 -0.395403D+00  0.000000D+00
     18 -0.359956D+00 -0.404864D+00  0.000000D+00
     19  0.382857D+00  0.658359D-01  0.120268D+00  0.000000D+00
     20 -0.792999D-02  0.606709D-02  0.952709D-01  0.123109D+00  0.000000D+00
     21 -0.583815D-02  0.154799D-01  0.103594D-01  0.578039D-01 -0.419955D+00
     22 -0.866296D-02 -0.458977D-02 -0.948846D-02  0.344950D+00 -0.346182D+00
     23 -0.392467D-05 -0.408459D-04  0.603535D-05 -0.318083D-04 -0.283996D-04
     24  0.512101D-05  0.120291D-05  0.168575D-03  0.384215D-04 -0.560695D-05
     25  0.448800D-05 -0.963209D-05  0.487285D-04  0.896340D-04 -0.871012D-05
     26 -0.607793D-03 -0.107112D-02 -0.729218D-04  0.151369D-02 -0.417472D-03
     27  0.742795D-04  0.952320D-03  0.400867D-04 -0.754671D-04  0.206432D-03
     28  0.530473D-04  0.257609D-03  0.667843D-05  0.129041D-03 -0.111694D-04
     29  0.107312D-02 -0.521099D-03  0.323599D-03 -0.240500D-03  0.204352D-02
     30  0.569888D-04  0.537344D-04 -0.175507D-05 -0.378281D-04  0.442948D-04
     31  0.194351D-03  0.446242D-03  0.480590D-04 -0.253854D-03  0.456374D-03
     32  0.287724D-05 -0.158967D-04 -0.146737D-05  0.117647D-04 -0.706227D-05
               21            22            23            24            25
     21  0.000000D+00
     22 -0.399042D+00  0.000000D+00
     23 -0.346144D-05  0.000000D+00  0.000000D+00
     24  0.234146D-04  0.309130D-05  0.641976D-02  0.000000D+00
     25  0.141829D-04  0.245033D-04 -0.995568D-02 -0.339628D+00  0.000000D+00
     26 -0.632275D-03  0.245909D-03 -0.156481D-01  0.450014D-02  0.491875D-03
     27  0.125180D-02  0.104941D-03  0.177533D+00  0.158192D-03  0.356166D-02
     28 -0.167970D-03 -0.345379D-04  0.144055D+00  0.128108D+00  0.312003D+00
     29  0.346109D-03  0.135635D-02  0.354563D+00  0.218551D-01  0.540295D-02
     30  0.157765D-03  0.113245D-03 -0.944727D-02 -0.990684D-03 -0.251653D-03
     31  0.829673D-03 -0.368678D-04  0.405748D+01  0.166518D-01 -0.464219D-02
     32 -0.434907D-04  0.164435D-05  0.479667D+00  0.170945D-03 -0.550108D-03
               26            27            28            29            30
     26  0.000000D+00
     27  0.217687D+00  0.000000D+00
     28 -0.152580D-01  0.980898D-02  0.000000D+00
     29 -0.719305D-01  0.669200D+00  0.252821D-01  0.000000D+00
     30 -0.158892D-01  0.611646D-01 -0.286748D-03  0.120958D+02  0.000000D+00
     31 -0.111234D-01  0.701355D+00  0.707695D+00 -0.234550D-01 -0.913948D-02
     32 -0.408284D-03 -0.949369D-02 -0.121605D-01  0.856523D-02  0.420898D-03
               31            32
     31  0.000000D+00
     32  0.113397D+02  0.000000D+00
 Fermi Contact (FC) contribution to J (Hz):
                1             2             3             4             5
      1  0.000000D+00
      2  0.418613D+02  0.000000D+00
      3  0.625383D+00  0.256585D+02  0.000000D+00
      4  0.663382D+01 -0.802398D+00  0.240348D+02  0.000000D+00
      5  0.356667D+02  0.306155D+01  0.892402D+00  0.353034D+02  0.000000D+00
      6 -0.446574D+00  0.635942D+02 -0.289606D+01 -0.121899D+00 -0.231130D+00
      7  0.111535D+01  0.657559D+00 -0.910566D+01  0.455319D+02  0.954853D+00
      8 -0.120956D+00  0.107354D+00 -0.170851D+01  0.808843D+01 -0.223698D-01
      9  0.167656D-01  0.402856D-01 -0.264836D+00  0.374425D+01 -0.861756D-01
     10 -0.117802D-02  0.166807D-03 -0.187737D-02 -0.153825D-01 -0.464270D-02
     11  0.736058D-01 -0.243335D+01  0.847255D-01  0.494749D-01 -0.700524D+00
     12 -0.190030D+01 -0.181312D+02 -0.283932D-01 -0.667985D-01 -0.262017D+00
     13  0.399952D+00  0.116704D+01  0.354606D-01  0.799247D-02 -0.170607D-01
     14 -0.120491D-02 -0.396481D-01 -0.156041D-01  0.351067D-02 -0.174774D-02
     15 -0.210651D-02 -0.196764D+00 -0.119027D+00  0.178407D-02 -0.478286D-02
     16 -0.497102D-02  0.161058D+00 -0.308701D-02 -0.116352D-03  0.533913D-02
     17  0.364016D-01  0.671528D+00 -0.233244D-01  0.293244D-02  0.608462D-02
     18  0.520823D-02  0.331608D-01  0.136417D-03 -0.654877D-03  0.127018D-02
     19 -0.337239D-01 -0.241563D+00 -0.968053D-01  0.164128D-02  0.127791D-01
     20  0.302169D-02  0.117712D+00  0.873670D-02  0.972381D-05  0.302736D-02
     21  0.645372D-01  0.424593D+00 -0.134429D-01 -0.494436D-03  0.566921D-03
     22  0.227918D-02  0.888202D-01  0.104360D-01 -0.439434D-04  0.264136D-03
     23 -0.337549D+01 -0.152309D+00 -0.207141D+00 -0.141811D+01  0.153223D+03
     24  0.104966D+01 -0.140033D+00 -0.135551D+01 -0.460341D+01  0.669517D+01
     25 -0.812920D-01 -0.955535D-01 -0.273711D+00 -0.454996D+01  0.380432D+01
     26 -0.778305D+00  0.147922D+03 -0.109473D+02  0.502598D+01  0.473765D+01
     27  0.129331D+03 -0.140140D+01  0.196827D+00 -0.820206D-01 -0.389069D+01
     28 -0.153700D+00  0.268293D+01 -0.835680D+01  0.144655D+03 -0.330156D+01
     29  0.223927D+02 -0.875467D+01 -0.129684D+01 -0.108026D+01 -0.637499D+00
     30 -0.263541D+01  0.955414D+01  0.270529D+00 -0.213334D+00  0.339849D+00
     31  0.484648D+00 -0.181858D+00 -0.586330D+00 -0.257661D+00  0.226891D+02
     32  0.922475D+00 -0.222324D+00  0.138539D-02  0.959058D+00 -0.343351D+01
                6             7             8             9            10
      6  0.000000D+00
      7 -0.399553D-01  0.000000D+00
      8 -0.308841D-01 -0.482072D+01  0.000000D+00
      9 -0.945992D-02 -0.820721D+00 -0.522108D+01  0.000000D+00
     10  0.759130D-03  0.553579D+00 -0.163405D+01 -0.383056D+01  0.000000D+00
     11  0.232344D+02 -0.204955D+00  0.422394D-02  0.189452D-02 -0.241850D-02
     12  0.316740D+02 -0.146359D-01 -0.899738D-03  0.326033D-03 -0.171254D-03
     13 -0.234549D+01 -0.104863D-01 -0.681153D-03 -0.108483D-03  0.250513D-04
     14  0.299728D+01  0.253772D-02 -0.647800D-04 -0.225404D-04  0.121861D-04
     15  0.224310D+00 -0.157877D-02  0.123450D-02  0.148733D-03  0.794074D-05
     16 -0.327142D+00  0.513820D-03 -0.100855D-03 -0.173025D-04  0.919081D-05
     17  0.991434D+00  0.139672D-02 -0.442996D-03 -0.820458D-04  0.130943D-04
     18 -0.150450D+00  0.496232D-03 -0.157579D-03  0.102516D-03  0.691046D-04
     19  0.310984D+01 -0.151719D-02  0.642913D-03  0.406633D-03  0.157319D-03
     20 -0.577549D-01  0.890277D-03  0.666273D-04  0.103175D-04  0.102464D-04
     21 -0.252229D+00  0.227580D-02  0.678018D-03  0.343366D-04  0.120649D-04
     22 -0.138414D+00 -0.504995D-04 -0.816813D-05  0.289617D-04  0.187053D-04
     23 -0.138018D+00  0.480315D+01  0.311252D-02  0.111387D-01  0.196520D-02
     24  0.451927D-01  0.135330D+03 -0.815099D+00  0.514497D+00  0.336839D+00
     25  0.269914D-03  0.134123D+03 -0.870679D+00  0.123716D+01  0.237914D+00
     26 -0.303757D+01  0.191034D+00  0.430806D+00  0.676121D-01  0.744004D-02
     27  0.835831D+01 -0.217062D+00  0.596953D-01  0.267003D-02  0.164707D-02
     28  0.616248D+00 -0.128446D+01  0.394971D+00 -0.237767D+00 -0.128182D-01
     29  0.527225D+00  0.145273D-03  0.514278D-02  0.897819D-03 -0.433090D-03
     30 -0.514252D+00  0.105939D+00 -0.308066D-02 -0.149645D-03  0.245373D-04
     31 -0.107339D-01 -0.484014D+00 -0.386125D+00 -0.556960D-01 -0.614260D-02
     32 -0.403462D-02 -0.840875D-01 -0.896666D-02 -0.639317D-02 -0.227477D-03
               11            12            13            14            15
     11  0.000000D+00
     12 -0.115508D+01  0.000000D+00
     13 -0.190395D+01  0.239600D+02  0.000000D+00
     14 -0.589457D-03 -0.876914D+01  0.394856D+02  0.000000D+00
     15 -0.109815D+00 -0.186109D+01  0.373753D+02  0.114954D+01  0.000000D+00
     16 -0.286860D+00 -0.128894D+01 -0.613416D+01  0.120589D+03  0.325558D+01
     17 -0.357762D-02 -0.118655D+02  0.206586D+01  0.115793D+03  0.978516D+00
     18 -0.133917D-01 -0.180951D+01 -0.504184D+01  0.121338D+03  0.886437D+01
     19 -0.259638D+00 -0.108815D+01  0.141453D+03 -0.545624D+00 -0.595561D+00
     20 -0.206332D+00 -0.709676D+00 -0.503737D+01  0.927487D+01  0.123566D+03
     21 -0.129745D-01 -0.633520D+01  0.153599D+01  0.104870D+01  0.115716D+03
     22  0.278952D-02 -0.121766D+01 -0.582730D+01  0.332161D+01  0.120118D+03
     23 -0.430596D+00  0.936211D-02  0.181086D-01 -0.130301D-02  0.880378D-04
     24 -0.178474D-01 -0.821833D-02  0.972191D-03  0.134051D-05  0.138067D-02
     25 -0.185738D+00  0.359622D-03  0.729163D-02 -0.445844D-04  0.174650D-03
     26 -0.177886D+01 -0.206905D+00  0.896065D-01 -0.849601D-02  0.674874D-01
     27  0.580096D-01 -0.878900D+00  0.144972D+00  0.116820D-01  0.202912D-01
     28 -0.555500D-01 -0.246744D-01  0.168452D-01  0.239528D-02  0.489238D-02
     29  0.177032D+01 -0.125840D+00  0.117091D-01  0.583694D-03 -0.226935D-02
     30 -0.159528D+00 -0.119867D+00  0.768865D-03 -0.118482D-02  0.849445D-04
     31  0.214100D+00  0.407673D-01  0.404771D-02  0.242663D-03 -0.193333D-02
     32 -0.157947D+00  0.256385D-01  0.354386D-02  0.167735D-04 -0.936336D-03
               16            17            18            19            20
     16  0.000000D+00
     17 -0.123366D+02  0.000000D+00
     18 -0.112306D+02 -0.126317D+02  0.000000D+00
     19  0.119451D+02  0.205408D+01  0.375236D+01  0.000000D+00
     20 -0.247415D+00  0.189293D+00  0.297245D+01  0.384099D+01  0.000000D+00
     21 -0.182150D+00  0.482973D+00  0.323212D+00  0.180348D+01 -0.131026D+02
     22 -0.270284D+00 -0.143201D+00 -0.296040D+00  0.107624D+02 -0.108009D+02
     23 -0.122450D-03 -0.127439D-02  0.188303D-03 -0.992417D-03 -0.886068D-03
     24  0.159775D-03  0.375307D-04  0.525952D-02  0.119875D-02 -0.174937D-03
     25  0.140025D-03 -0.300521D-03  0.152033D-02  0.279658D-02 -0.271755D-03
     26 -0.189631D-01 -0.334189D-01 -0.227516D-02  0.472269D-01 -0.130251D-01
     27  0.231752D-02  0.297123D-01  0.125070D-02 -0.235457D-02  0.644066D-02
     28  0.165507D-02  0.803738D-02  0.208367D-03  0.402609D-02 -0.348485D-03
     29 -0.454064D-02  0.220491D-02 -0.136923D-02  0.101762D-02 -0.864670D-02
     30  0.177805D-02  0.167651D-02 -0.547582D-04 -0.118023D-02  0.138199D-02
     31 -0.822351D-03 -0.188817D-02 -0.203351D-03  0.107412D-02 -0.193104D-02
     32  0.897698D-04 -0.495977D-03 -0.457818D-04  0.367059D-03 -0.220343D-03
               21            22            23            24            25
     21  0.000000D+00
     22 -0.124501D+02  0.000000D+00
     23 -0.107997D-03  0.589916D-05  0.000000D+00
     24  0.730536D-03  0.964484D-04  0.200296D+00  0.000000D+00
     25  0.442507D-03  0.764500D-03 -0.310617D+00 -0.105964D+02  0.000000D+00
     26 -0.197270D-01  0.767234D-02 -0.488220D+00  0.140404D+00  0.153465D-01
     27  0.390563D-01  0.327415D-02  0.553902D+01  0.493558D-02  0.111124D+00
     28 -0.524066D-02 -0.107758D-02  0.449450D+01  0.399696D+01  0.973448D+01
     29 -0.146448D-02 -0.573909D-02 -0.150025D+01 -0.924748D-01 -0.228614D-01
     30  0.492226D-02  0.353323D-02 -0.294754D+00 -0.309093D-01 -0.785155D-02
     31 -0.351057D-02  0.155998D-03 -0.171683D+02 -0.704585D-01  0.196424D-01
     32 -0.135691D-02  0.513036D-04  0.149656D+02  0.533347D-02 -0.171633D-01
               26            27            28            29            30
     26  0.000000D+00
     27  0.679182D+01  0.000000D+00
     28 -0.476049D+00  0.306040D+00  0.000000D+00
     29  0.304357D+00 -0.283157D+01 -0.106976D+00  0.000000D+00
     30 -0.495741D+00  0.190833D+01 -0.894652D-02 -0.511808D+02  0.000000D+00
     31  0.470659D-01 -0.296762D+01 -0.299445D+01 -0.134593D-01  0.386716D-01
     32 -0.127385D-01 -0.296203D+00 -0.379406D+00 -0.362418D-01  0.131320D-01
               31            32
     31  0.000000D+00
     32 -0.479814D+02  0.000000D+00
 Spin-dipolar (SD) contribution to K (Hz):
                1             2             3             4             5
      1  0.000000D+00
      2  0.560883D+00  0.000000D+00
      3 -0.106686D+00  0.169309D+01  0.000000D+00
      4  0.417060D-02 -0.192868D-01  0.187351D+01  0.000000D+00
      5  0.559125D+00 -0.118749D-01 -0.677066D-01  0.596758D+00  0.000000D+00
      6 -0.269000D-01  0.485576D+00 -0.955502D-01 -0.839803D-02 -0.710793D-02
      7  0.951622D-03 -0.712971D-02 -0.531232D-01  0.578906D+00 -0.149801D-01
      8  0.389419D-02  0.995742D-03  0.144858D-01  0.121191D-01 -0.295402D-02
      9  0.320012D-02  0.145637D-02  0.403589D-01  0.291786D-01  0.509841D-02
     10 -0.289090D-02 -0.259892D-02 -0.109256D-01  0.165821D-01 -0.126043D-01
     11 -0.162604D-01  0.453527D+00 -0.546763D+00 -0.106142D-01 -0.144712D-01
     12 -0.244564D-03 -0.124440D-01 -0.145397D+00 -0.596627D-02 -0.398604D-02
     13  0.208833D-02  0.498819D-01  0.340953D-02 -0.492488D-03 -0.101172D-02
     14  0.117449D-02 -0.179915D-02 -0.392030D-02 -0.234588D-03 -0.515367D-03
     15 -0.130246D-02  0.708884D-03  0.218541D-02 -0.211036D-03 -0.753062D-03
     16  0.961007D-03 -0.111574D-02 -0.146638D-02  0.392275D-03 -0.353994D-03
     17  0.469286D-03  0.250432D-03 -0.274458D-03 -0.638671D-04 -0.315824D-03
     18  0.100905D-02 -0.132455D-02 -0.231176D-03  0.329276D-04 -0.517265D-03
     19 -0.469812D-03  0.418365D-02 -0.201811D-02 -0.854395D-03 -0.891745D-03
     20 -0.724619D-03  0.104731D-02  0.144264D-02 -0.379299D-03 -0.517445D-03
     21 -0.172851D-03  0.835550D-03  0.399095D-03 -0.155166D-03 -0.297199D-03
     22 -0.200465D-03 -0.419993D-03 -0.197152D-03  0.106113D-03 -0.256563D-03
     23  0.891938D-02 -0.559580D-02 -0.133740D-01  0.901447D-02  0.229842D-01
     24 -0.133054D-02  0.347901D-02 -0.166896D-01  0.711664D-02  0.419526D-02
     25 -0.226303D-02 -0.338220D-02 -0.463938D-02  0.785510D-02 -0.402678D-02
     26  0.408336D-02  0.227544D-01 -0.397089D-01  0.260045D-02 -0.487590D-03
     27  0.484575D-02  0.810907D-03 -0.143335D-01 -0.682228D-02  0.654211D-02
     28 -0.560958D-02 -0.777743D-03 -0.557609D-01  0.163138D-01  0.759318D-02
     29  0.152876D+01 -0.289812D-02  0.426247D-01 -0.120484D-01  0.930733D-01
     30  0.358253D-03  0.103245D-01 -0.477305D-02  0.534340D-02 -0.775194D-02
     31  0.177763D-01 -0.255509D-01 -0.973344D-02 -0.429180D-01  0.150241D+01
     32 -0.410609D-02 -0.442064D-02 -0.870652D-02 -0.466251D-02  0.212783D-02
                6             7             8             9            10
      6  0.000000D+00
      7 -0.347578D-02  0.000000D+00
      8  0.118304D-02  0.759731D+00  0.000000D+00
      9 -0.515940D-04 -0.104105D-01 -0.971357D+00  0.000000D+00
     10  0.254302D-03  0.170206D+00  0.975906D+01  0.854593D+01  0.000000D+00
     11  0.195402D+01 -0.569078D-02  0.499226D-03 -0.192007D-02  0.444260D-02
     12 -0.233336D+00  0.167959D-02  0.248960D-02  0.615611D-03  0.206444D-02
     13 -0.401833D-02 -0.121624D-02  0.129713D-03 -0.720609D-03  0.772349D-03
     14  0.334348D-02 -0.746859D-03  0.239095D-03 -0.597115D-03  0.558892D-03
     15  0.458079D-03  0.420982D-04  0.907484D-04 -0.223584D-03  0.514503D-03
     16  0.472978D-02 -0.502642D-03  0.337161D-03 -0.358697D-03  0.375505D-03
     17  0.323857D-03 -0.206411D-03  0.879600D-04 -0.381736D-03  0.446400D-03
     18  0.144145D-03 -0.776867D-03  0.465322D-03 -0.772658D-03  0.823239D-03
     19 -0.935522D-02  0.287334D-03  0.374093D-04 -0.866739D-03  0.138233D-02
     20  0.393702D-03 -0.179660D-04 -0.107625D-03 -0.207860D-03  0.536135D-03
     21 -0.195616D-02  0.192889D-04 -0.395799D-04 -0.226642D-03  0.390590D-03
     22 -0.225721D-03 -0.216572D-03  0.149728D-03 -0.169440D-03  0.287121D-03
     23 -0.350203D-02 -0.724587D-02 -0.956406D-02  0.324807D-02  0.210068D-04
     24 -0.122998D-02  0.150221D-01 -0.100781D-01 -0.882958D-02  0.894558D-03
     25  0.439364D-02  0.159752D-01 -0.118036D-01 -0.188651D-01  0.175115D-01
     26  0.959936D-02 -0.395219D-03  0.199428D-02  0.556074D-03 -0.152297D-02
     27  0.151389D-02  0.406272D-02  0.103804D-02  0.147025D-02 -0.280748D-02
     28 -0.781236D-03  0.703442D-02  0.140121D-01  0.103275D-01 -0.164856D-01
     29 -0.373795D-02  0.135737D-02  0.491257D-03  0.933611D-03 -0.297721D-03
     30 -0.211571D-02  0.493648D-04 -0.725864D-03  0.526165D-03 -0.361991D-03
     31 -0.345965D-03 -0.311688D-01 -0.311370D-02 -0.184242D-02 -0.191519D-01
     32  0.286227D-03  0.266095D-02  0.315949D-02  0.186898D-02 -0.820007D-02
               11            12            13            14            15
     11  0.000000D+00
     12  0.198210D+01  0.000000D+00
     13 -0.410652D-01  0.176696D+01  0.000000D+00
     14 -0.100688D-01 -0.271234D-01  0.517221D+00  0.000000D+00
     15 -0.253126D-02 -0.307580D-01  0.507057D+00 -0.212135D-01  0.000000D+00
     16 -0.393044D-02 -0.428912D-02  0.960700D-02  0.154896D-01 -0.371728D-02
     17 -0.255303D-02  0.314529D-03  0.121906D-01  0.141389D-01 -0.314569D-02
     18  0.172690D-02 -0.139818D-01  0.600612D-02  0.160587D-01  0.359451D-02
     19 -0.197936D-01 -0.232376D-01  0.214786D-01  0.364993D-02  0.464729D-02
     20 -0.940414D-02 -0.174846D-01  0.609070D-02  0.363115D-02  0.177133D-01
     21 -0.351908D-02  0.307138D-02  0.121155D-01 -0.317923D-02  0.140683D-01
     22  0.356259D-02 -0.158066D-01  0.922170D-02 -0.356064D-02  0.158086D-01
     23  0.693397D-02 -0.143680D-02 -0.584802D-03  0.144588D-03 -0.229606D-03
     24  0.312534D-02  0.220996D-02 -0.686388D-03 -0.105291D-03  0.314263D-03
     25 -0.123208D-01  0.929368D-02 -0.107378D-02 -0.460451D-03  0.230214D-03
     26  0.106226D-01 -0.130327D-01  0.824322D-02 -0.144727D-02 -0.167088D-02
     27 -0.772382D-03 -0.205894D-02  0.153126D-02 -0.769279D-04 -0.584003D-03
     28 -0.429909D-02 -0.156981D-02  0.221655D-03 -0.229625D-03 -0.248442D-05
     29  0.134229D-01 -0.770820D-02  0.385090D-03 -0.252252D-03 -0.848890D-03
     30  0.104367D-02 -0.270140D-03 -0.482009D-03  0.210792D-03 -0.213097D-03
     31  0.299347D-01  0.409252D-02  0.561521D-05  0.330460D-03  0.439379D-03
     32 -0.278085D-04  0.183542D-03  0.374146D-03 -0.657189D-04 -0.102355D-03
               16            17            18            19            20
     16  0.000000D+00
     17  0.941495D-02  0.000000D+00
     18  0.973822D-02  0.930747D-02  0.000000D+00
     19  0.102977D-02  0.251207D-02  0.307687D-02  0.000000D+00
     20 -0.807258D-04 -0.204209D-03  0.446446D-03  0.321406D-02  0.000000D+00
     21  0.158783D-03  0.138168D-02 -0.212031D-03  0.242483D-02  0.971928D-02
     22  0.135090D-02  0.810495D-04 -0.106225D-03  0.785856D-03  0.945734D-02
     23  0.292708D-04  0.136145D-04 -0.257985D-04  0.796721D-04  0.510124D-05
     24 -0.352900D-04 -0.195741D-04 -0.137592D-04  0.153516D-04  0.113308D-04
     25 -0.805710D-04 -0.594951D-04 -0.394822D-04 -0.479287D-04  0.481010D-04
     26 -0.204269D-04 -0.411941D-04 -0.755572D-04  0.433272D-03 -0.127198D-04
     27  0.206678D-04  0.240865D-04  0.274575D-04  0.116745D-03 -0.106622D-03
     28 -0.833724D-05 -0.138200D-04 -0.269631D-04  0.000000D+00  0.239744D-04
     29 -0.585022D-03 -0.276227D-03 -0.582396D-03 -0.414155D-03  0.185434D-03
     30 -0.320238D-04 -0.415044D-05  0.847860D-05 -0.391871D-04 -0.144125D-03
     31  0.280932D-03  0.258890D-03  0.356446D-03  0.866277D-03  0.450406D-03
     32 -0.519232D-05  0.451714D-05 -0.739755D-05  0.457869D-04  0.205027D-04
               21            22            23            24            25
     21  0.000000D+00
     22  0.926537D-02  0.000000D+00
     23  0.127184D-05  0.155874D-04  0.000000D+00
     24  0.730762D-05 -0.152155D-05  0.624197D-04  0.000000D+00
     25 -0.287233D-05  0.275983D-04  0.120391D-02  0.124071D-01  0.000000D+00
     26 -0.383938D-04 -0.360100D-05 -0.142955D-03  0.131660D-03 -0.120637D-03
     27 -0.231191D-04 -0.471610D-04  0.109732D-02  0.651487D-04  0.679907D-04
     28  0.138597D-04  0.214515D-04  0.284203D-03  0.328229D-02  0.158062D-02
     29 -0.477825D-05 -0.392102D-03 -0.127989D-01 -0.349534D-04 -0.124309D-02
     30 -0.563331D-04 -0.119935D-03  0.968364D-03  0.520380D-04  0.379210D-04
     31  0.278177D-03  0.388129D-03 -0.232439D-01  0.544565D-03  0.107956D-03
     32  0.129360D-04  0.588500D-05  0.142608D-02  0.188208D-03  0.267929D-03
               26            27            28            29            30
     26  0.000000D+00
     27  0.554201D-02  0.000000D+00
     28 -0.113891D-03  0.899838D-03  0.000000D+00
     29 -0.330209D-02 -0.579459D-01  0.262725D-03  0.000000D+00
     30  0.139074D-03  0.394425D-02 -0.433921D-04  0.128207D+00  0.000000D+00
     31 -0.304960D-02 -0.314020D-01 -0.317388D-01 -0.100746D+00 -0.515890D-02
     32 -0.330118D-03  0.705668D-03 -0.232559D-03 -0.721169D-02  0.724819D-03
               31            32
     31  0.000000D+00
     32  0.141574D+00  0.000000D+00
 Spin-dipolar (SD) contribution to J (Hz):
                1             2             3             4             5
      1  0.000000D+00
      2  0.110692D+01  0.000000D+00
      3  0.113533D+00 -0.180175D+01  0.000000D+00
      4  0.823079D-02 -0.380631D-01 -0.199375D+01  0.000000D+00
      5  0.110345D+01 -0.234354D-01  0.720521D-01  0.117772D+01  0.000000D+00
      6 -0.530878D-01  0.958296D+00  0.101683D+00 -0.165737D-01 -0.140277D-01
      7  0.187805D-02 -0.140707D-01  0.565327D-01  0.114249D+01 -0.295637D-01
      8  0.220883D-02  0.564797D-03 -0.443057D-02  0.687413D-02 -0.167555D-02
      9  0.181515D-02  0.826072D-03 -0.123441D-01  0.165505D-01  0.289188D-02
     10 -0.163975D-02 -0.147414D-02  0.334168D-02  0.940558D-02 -0.714934D-02
     11  0.173040D-01 -0.482634D+00 -0.313752D+00  0.112954D-01  0.153999D-01
     12  0.260261D-03  0.132427D-01 -0.834340D-01  0.634919D-02  0.424187D-02
     13  0.412137D-02  0.984432D-01 -0.362836D-02 -0.971937D-03 -0.199665D-02
     14  0.231788D-02 -0.355067D-02  0.417191D-02 -0.462965D-03 -0.101709D-02
     15 -0.257043D-02  0.139900D-02 -0.232567D-02 -0.416484D-03 -0.148619D-02
     16  0.754093D-02 -0.875511D-02  0.620466D-02  0.307815D-02 -0.277776D-02
     17  0.368244D-02  0.196512D-02  0.116131D-02 -0.501159D-03 -0.247824D-02
     18  0.791794D-02 -0.103936D-01  0.978170D-03  0.258380D-03 -0.405893D-02
     19 -0.368657D-02  0.328287D-01  0.853916D-02 -0.670436D-02 -0.699744D-02
[...]
 Alpha virt. eigenvalues --    2.84944   2.85584   2.87280   2.89597   2.91215
 Alpha virt. eigenvalues --    2.92679   2.93803   2.95646   2.96051   2.97411
 Alpha virt. eigenvalues --    2.98549   3.01982   3.04071   3.06809   3.08384
 Alpha virt. eigenvalues --    3.09569   3.11147   3.11535   3.12444   3.13606
 Alpha virt. eigenvalues --    3.16329   3.16533   3.17273   3.19940   3.22834
 Alpha virt. eigenvalues --    3.24370   3.25953   3.29286   3.31931   3.35006
 Alpha virt. eigenvalues --    3.38039   3.39145   3.39769   3.48495   3.52830
 Alpha virt. eigenvalues --    3.59459   3.64123   3.65548   3.69355   3.76258
 Alpha virt. eigenvalues --    3.76535   3.77988   3.79857   3.82248   3.83171
 Alpha virt. eigenvalues --    3.83291   3.85938   3.89830   3.92286   3.96031
 Alpha virt. eigenvalues --    3.97066   3.97952   4.03873   4.05657   4.08097
 Alpha virt. eigenvalues --    4.11502   4.12925   4.15085   4.16042   4.21314
 Alpha virt. eigenvalues --    4.23836   4.26322   4.30834   4.36219   4.43896
 Alpha virt. eigenvalues --    4.66633   5.05346   5.07251   5.10960   5.12421
 Alpha virt. eigenvalues --    5.16897   5.19994   5.28181   5.35392   5.37273
 Alpha virt. eigenvalues --    5.41003   5.45571   5.60385   5.61627   5.66188
 Alpha virt. eigenvalues --    5.71591   5.89845  23.75521  23.75677  23.77974
 Alpha virt. eigenvalues --   23.81160  23.84081  23.84276  23.89219  23.94884
 Alpha virt. eigenvalues --   23.95872  35.19239  35.55201  36.19233  49.90215
 Alpha virt. eigenvalues --   49.92946  49.93545  49.96739  50.02278
          Condensed to atoms (all electrons):
              1          2          3          4          5          6
     1  C    9.674716  -3.131713   0.088208   1.079773  -2.938143   0.833801
     2  C   -3.131713  13.319559   0.225838  -1.960257   1.691949  -4.355966
     3  O    0.088208   0.225838   7.918433   0.233821  -0.161395  -0.130720
     4  C    1.079773  -1.960257   0.233821  10.512719  -2.224457   0.697729
     5  C   -2.938143   1.691949  -0.161395  -2.224457   9.989708  -0.176486
     6  C    0.833801  -4.355966  -0.130720   0.697729  -0.176486   9.769308
     7  C    0.045400   0.470134  -0.069205  -2.036559  -0.364401  -0.449044
     8  N   -0.036562  -0.066346   0.033053  -0.513412   0.331889   0.100960
     9  N    0.081709   0.059173  -0.006698  -0.042169  -0.232709  -0.086335
    10  N    0.024863   0.010579  -0.003648   0.335652  -0.119849  -0.020496
    11  O   -0.047703   0.012732  -0.014228   0.042387  -0.053712   0.502990
    12  O    0.049619  -0.427378   0.016623   0.068703  -0.060558   0.093554
    13  C   -0.014483  -0.234011   0.009038   0.044790  -0.072283  -0.369375
    14  C    0.010110  -0.104159   0.009532  -0.019692   0.003783   0.197397
    15  C   -0.006947  -0.170698  -0.006385   0.021741   0.002546  -0.085483
    16  H   -0.000876   0.002132  -0.000013   0.000024   0.000004  -0.015754
    17  H    0.000119   0.000538  -0.000010  -0.000128   0.000016   0.010265
    18  H   -0.000067  -0.000989  -0.000128   0.000035   0.000087   0.005018
    19  H   -0.004922   0.005631  -0.000138  -0.001942  -0.000386  -0.015798
    20  H   -0.000070   0.003691   0.000053   0.000830  -0.000543   0.005233
    21  H    0.000186   0.004827   0.000013  -0.000050   0.000151   0.026342
    22  H    0.000494  -0.010440   0.000039  -0.000062  -0.000353  -0.020836
    23  H   -0.067962   0.013368   0.004245  -0.053067   0.482554   0.000307
    24  H    0.003174  -0.003903  -0.008467  -0.029122   0.011916  -0.005050
    25  H    0.015602   0.009840   0.003924  -0.047446  -0.007605  -0.009389
    26  H   -0.042874   0.356663  -0.063715   0.030362  -0.009278   0.012715
    27  H    0.408124  -0.039634   0.002482  -0.052752   0.079908  -0.018865
    28  H   -0.041544   0.042315  -0.070249   0.417319  -0.000514   0.009039
    29  O    0.303615  -0.105574   0.009707   0.003682  -0.165174   0.098470
    30  H    0.129007  -0.008529  -0.001430   0.024467  -0.064351  -0.031280
    31  O    0.001836  -0.069177   0.003079   0.013054   0.057307   0.045169
    32  H   -0.077646   0.040799  -0.001308  -0.087686   0.201469  -0.010189
              7          8          9         10         11         12
     1  C    0.045400  -0.036562   0.081709   0.024863  -0.047703   0.049619
     2  C    0.470134  -0.066346   0.059173   0.010579   0.012732  -0.427378
     3  O   -0.069205   0.033053  -0.006698  -0.003648  -0.014228   0.016623
     4  C   -2.036559  -0.513412  -0.042169   0.335652   0.042387   0.068703
     5  C   -0.364401   0.331889  -0.232709  -0.119849  -0.053712  -0.060558
     6  C   -0.449044   0.100960  -0.086335  -0.020496   0.502990   0.093554
     7  C    7.627592   0.150347   0.396090  -0.293380   0.001165  -0.008139
     8  N    0.150347  13.442573  -1.644482  -4.842115  -0.006122  -0.001175
     9  N    0.396090  -1.644482   9.447112  -1.257536   0.005650   0.000196
    10  N   -0.293380  -4.842115  -1.257536  13.495421   0.000907   0.000151
    11  O    0.001165  -0.006122   0.005650   0.000907   7.958971  -0.167453
    12  O   -0.008139  -0.001175   0.000196   0.000151  -0.167453   8.344346
    13  C    0.006824   0.005301  -0.005061  -0.000681   0.041031   0.192760
    14  C    0.005733   0.001427  -0.000405  -0.000342   0.029538  -0.156144
    15  C   -0.015213   0.000512  -0.000763  -0.000152  -0.115008   0.020974
    16  H    0.000055  -0.000001   0.000000   0.000000  -0.000416  -0.010551
    17  H    0.000065  -0.000001   0.000001   0.000000   0.000147   0.017429
    18  H   -0.000380   0.000013  -0.000006  -0.000002  -0.000074  -0.007117
    19  H    0.001365   0.000072  -0.000042  -0.000019   0.004510  -0.041574
    20  H   -0.000343  -0.000003   0.000002   0.000000   0.002478  -0.012172
    21  H   -0.000006   0.000000   0.000000   0.000000  -0.000270   0.011357
    22  H    0.000160   0.000000   0.000000   0.000000   0.000877  -0.007278
    23  H   -0.009932   0.011082  -0.011811  -0.000333  -0.004481   0.000173
    24  H    0.413451  -0.137694   0.072915   0.022863  -0.000060   0.000058
    25  H    0.389117   0.188327  -0.147942  -0.069366   0.005252  -0.000885
    26  H   -0.000053   0.000455  -0.000194  -0.000014   0.009263   0.005870
    27  H   -0.008276   0.000090   0.000037  -0.000005  -0.002461  -0.000961
    28  H   -0.076846   0.083573  -0.080154  -0.011421   0.000333  -0.000049
    29  O    0.013335  -0.001262   0.001744   0.000158  -0.035750  -0.012291
    30  H   -0.005690  -0.000170  -0.000012   0.000004   0.000869   0.000824
    31  O    0.011956  -0.054619   0.037697   0.008342   0.002936   0.000589
    32  H   -0.020018  -0.008745   0.005286   0.000700  -0.000159  -0.000052
             13         14         15         16         17         18
     1  C   -0.014483   0.010110  -0.006947  -0.000876   0.000119  -0.000067
     2  C   -0.234011  -0.104159  -0.170698   0.002132   0.000538  -0.000989
     3  O    0.009038   0.009532  -0.006385  -0.000013  -0.000010  -0.000128
     4  C    0.044790  -0.019692   0.021741   0.000024  -0.000128   0.000035
     5  C   -0.072283   0.003783   0.002546   0.000004   0.000016   0.000087
     6  C   -0.369375   0.197397  -0.085483  -0.015754   0.010265   0.005018
     7  C    0.006824   0.005733  -0.015213   0.000055   0.000065  -0.000380
     8  N    0.005301   0.001427   0.000512  -0.000001  -0.000001   0.000013
     9  N   -0.005061  -0.000405  -0.000763   0.000000   0.000001  -0.000006
    10  N   -0.000681  -0.000342  -0.000152   0.000000   0.000000  -0.000002
    11  O    0.041031   0.029538  -0.115008  -0.000416   0.000147  -0.000074
    12  O    0.192760  -0.156144   0.020974  -0.010551   0.017429  -0.007117
    13  C    6.347170  -0.016172  -0.041636   0.021952  -0.100459  -0.035311
    14  C   -0.016172   5.629797  -0.286663   0.374364   0.449626   0.403611
    15  C   -0.041636  -0.286663   5.788488  -0.004726  -0.002937   0.012838
    16  H    0.021952   0.374364  -0.004726   0.525547  -0.027599  -0.025726
    17  H   -0.100459   0.449626  -0.002937  -0.027599   0.532935  -0.023882
    18  H   -0.035311   0.403611   0.012838  -0.025726  -0.023882   0.528808
    19  H    0.407560  -0.028176  -0.023054   0.006757  -0.004712  -0.005314
    20  H   -0.037079  -0.002672   0.422403  -0.000072   0.000158  -0.000311
    21  H   -0.061540  -0.007411   0.395243  -0.000282   0.001063   0.000076
    22  H   -0.008134   0.014586   0.398677   0.003247  -0.000204  -0.000230
    23  H    0.001340   0.000059   0.000104   0.000000   0.000000   0.000000
    24  H   -0.000993  -0.000081  -0.000082   0.000000   0.000000   0.000004
    25  H    0.000177  -0.000570  -0.000074   0.000001   0.000001   0.000006
    26  H    0.004127   0.002223   0.001842  -0.000076   0.000002  -0.000006
    27  H   -0.000839  -0.000174   0.000178   0.000000   0.000000   0.000000
    28  H    0.001214   0.000203  -0.000021   0.000000   0.000000   0.000000
    29  O   -0.003402  -0.001271  -0.002175   0.000002   0.000002   0.000003
    30  H   -0.001638   0.000035   0.000145   0.000000   0.000000   0.000000
    31  O    0.001616   0.000103   0.000149   0.000000   0.000000   0.000000
    32  H   -0.000128  -0.000002  -0.000010   0.000000   0.000000   0.000000
             19         20         21         22         23         24
     1  C   -0.004922  -0.000070   0.000186   0.000494  -0.067962   0.003174
     2  C    0.005631   0.003691   0.004827  -0.010440   0.013368  -0.003903
     3  O   -0.000138   0.000053   0.000013   0.000039   0.004245  -0.008467
     4  C   -0.001942   0.000830  -0.000050  -0.000062  -0.053067  -0.029122
     5  C   -0.000386  -0.000543   0.000151  -0.000353   0.482554   0.011916
     6  C   -0.015798   0.005233   0.026342  -0.020836   0.000307  -0.005050
     7  C    0.001365  -0.000343  -0.000006   0.000160  -0.009932   0.413451
     8  N    0.000072  -0.000003   0.000000   0.000000   0.011082  -0.137694
     9  N   -0.000042   0.000002   0.000000   0.000000  -0.011811   0.072915
    10  N   -0.000019   0.000000   0.000000   0.000000  -0.000333   0.022863
    11  O    0.004510   0.002478  -0.000270   0.000877  -0.004481  -0.000060
    12  O   -0.041574  -0.012172   0.011357  -0.007278   0.000173   0.000058
    13  C    0.407560  -0.037079  -0.061540  -0.008134   0.001340  -0.000993
    14  C   -0.028176  -0.002672  -0.007411   0.014586   0.000059  -0.000081
    15  C   -0.023054   0.422403   0.395243   0.398677   0.000104  -0.000082
    16  H    0.006757  -0.000072  -0.000282   0.003247   0.000000   0.000000
    17  H   -0.004712   0.000158   0.001063  -0.000204   0.000000   0.000000
    18  H   -0.005314  -0.000311   0.000076  -0.000230   0.000000   0.000004
    19  H    0.531868  -0.006066  -0.004368   0.007022   0.000001   0.000010
    20  H   -0.006066   0.500834  -0.022183  -0.025556   0.000003   0.000000
    21  H   -0.004368  -0.022183   0.539099  -0.026458   0.000000   0.000000
    22  H    0.007022  -0.025556  -0.026458   0.524919   0.000001   0.000000
    23  H    0.000001   0.000003   0.000000   0.000001   0.438138   0.000289
    24  H    0.000010   0.000000   0.000000   0.000000   0.000289   0.526512
    25  H    0.000063  -0.000005   0.000001  -0.000001   0.000712  -0.037273
    26  H   -0.000139  -0.000032  -0.000002  -0.000012  -0.000196  -0.000111
    27  H    0.000003   0.000002   0.000000   0.000001   0.003647   0.000072
    28  H    0.000001   0.000000   0.000000   0.000000   0.003235  -0.010394
    29  O    0.000051  -0.000050   0.000008   0.000015  -0.004481   0.000119
    30  H   -0.000001   0.000008   0.000000   0.000000  -0.003496   0.000006
    31  O    0.000005   0.000000   0.000000   0.000000  -0.044702  -0.002660
    32  H    0.000000   0.000000   0.000000   0.000000   0.005688   0.000116
             25         26         27         28         29         30
     1  C    0.015602  -0.042874   0.408124  -0.041544   0.303615   0.129007
     2  C    0.009840   0.356663  -0.039634   0.042315  -0.105574  -0.008529
     3  O    0.003924  -0.063715   0.002482  -0.070249   0.009707  -0.001430
     4  C   -0.047446   0.030362  -0.052752   0.417319   0.003682   0.024467
     5  C   -0.007605  -0.009278   0.079908  -0.000514  -0.165174  -0.064351
     6  C   -0.009389   0.012715  -0.018865   0.009039   0.098470  -0.031280
     7  C    0.389117  -0.000053  -0.008276  -0.076846   0.013335  -0.005690
     8  N    0.188327   0.000455   0.000090   0.083573  -0.001262  -0.000170
     9  N   -0.147942  -0.000194   0.000037  -0.080154   0.001744  -0.000012
    10  N   -0.069366  -0.000014  -0.000005  -0.011421   0.000158   0.000004
    11  O    0.005252   0.009263  -0.002461   0.000333  -0.035750   0.000869
    12  O   -0.000885   0.005870  -0.000961  -0.000049  -0.012291   0.000824
    13  C    0.000177   0.004127  -0.000839   0.001214  -0.003402  -0.001638
    14  C   -0.000570   0.002223  -0.000174   0.000203  -0.001271   0.000035
    15  C   -0.000074   0.001842   0.000178  -0.000021  -0.002175   0.000145
    16  H    0.000001  -0.000076   0.000000   0.000000   0.000002   0.000000
    17  H    0.000001   0.000002   0.000000   0.000000   0.000002   0.000000
    18  H    0.000006  -0.000006   0.000000   0.000000   0.000003   0.000000
    19  H    0.000063  -0.000139   0.000003   0.000001   0.000051  -0.000001
    20  H   -0.000005  -0.000032   0.000002   0.000000  -0.000050   0.000008
    21  H    0.000001  -0.000002   0.000000   0.000000   0.000008   0.000000
    22  H   -0.000001  -0.000012   0.000001   0.000000   0.000015   0.000000
    23  H    0.000712  -0.000196   0.003647   0.003235  -0.004481  -0.003496
    24  H   -0.037273  -0.000111   0.000072  -0.010394   0.000119   0.000006
    25  H    0.522168  -0.000026  -0.000125   0.006367  -0.000256   0.000029
    26  H   -0.000026   0.518545  -0.012332   0.000913   0.000556   0.000492
    27  H   -0.000125  -0.012332   0.571998  -0.001417  -0.052443  -0.011486
    28  H    0.006367   0.000913  -0.001417   0.550309  -0.001376  -0.000063
    29  O   -0.000256   0.000556  -0.052443  -0.001376   7.993398   0.175069
    30  H    0.000029   0.000492  -0.011486  -0.000063   0.175069   0.538325
    31  O    0.001565   0.000433  -0.021830  -0.000108  -0.002816   0.003817
    32  H   -0.000035  -0.000190   0.005688   0.001491  -0.001735  -0.000305
             31         32
     1  C    0.001836  -0.077646
     2  C   -0.069177   0.040799
     3  O    0.003079  -0.001308
     4  C    0.013054  -0.087686
     5  C    0.057307   0.201469
     6  C    0.045169  -0.010189
     7  C    0.011956  -0.020018
     8  N   -0.054619  -0.008745
     9  N    0.037697   0.005286
    10  N    0.008342   0.000700
    11  O    0.002936  -0.000159
    12  O    0.000589  -0.000052
    13  C    0.001616  -0.000128
    14  C    0.000103  -0.000002
    15  C    0.000149  -0.000010
    16  H    0.000000   0.000000
    17  H    0.000000   0.000000
    18  H    0.000000   0.000000
    19  H    0.000005   0.000000
    20  H    0.000000   0.000000
    21  H    0.000000   0.000000
    22  H    0.000000   0.000000
    23  H   -0.044702   0.005688
    24  H   -0.002660   0.000116
    25  H    0.001565  -0.000035
    26  H    0.000433  -0.000190
    27  H   -0.021830   0.005688
    28  H   -0.000108   0.001491
    29  O   -0.002816  -0.001735
    30  H    0.003817  -0.000305
    31  O    7.982422   0.220145
    32  H    0.220145   0.505363
 Mulliken atomic charges:
              1
     1  C   -0.338845
     2  C    0.419004
     3  O   -0.020348
     4  C   -0.458288
     5  C   -0.201093
     6  C   -0.607231
     7  C   -0.175306
     8  N   -0.036965
     9  N    0.408706
    10  N   -0.280281
    11  O   -0.174143
    12  O    0.090552
    13  C   -0.081669
    14  C   -0.508191
    15  C   -0.303814
    16  H    0.152005
    17  H    0.147565
    18  H    0.149042
    19  H    0.171730
    20  H    0.171461
    21  H    0.144206
    22  H    0.149524
    23  H    0.235516
    24  H    0.184383
    25  H    0.177843
    26  H    0.184787
    27  H    0.151371
    28  H    0.177845
    29  O   -0.209879
    30  H    0.255355
    31  O   -0.196307
    32  H    0.221464
 Sum of Mulliken charges=   0.00000
 Atomic charges with hydrogens summed into heavy atoms:
              1
     1  C   -0.187474
     2  C    0.603792
     3  O   -0.020348
     4  C   -0.280443
     5  C    0.034423
     6  C   -0.607231
     7  C    0.186920
     8  N   -0.036965
     9  N    0.408706
    10  N   -0.280281
    11  O   -0.174143
    12  O    0.090552
    13  C    0.090061
    14  C   -0.059579
    15  C    0.161377
    16  H    0.000000
    17  H    0.000000
    18  H    0.000000
    19  H    0.000000
    20  H    0.000000
    21  H    0.000000
    22  H    0.000000
    23  H    0.000000
    24  H    0.000000
    25  H    0.000000
    26  H    0.000000
    27  H    0.000000
    28  H    0.000000
    29  O    0.045476
    30  H    0.000000
    31  O    0.025157
    32  H    0.000000
 Sum of Mulliken charges=   0.00000
 Electronic spatial extent (au):  <R**2>=  5109.5227
 Charge=     0.0000 electrons
 Dipole moment (field-independent basis, Debye):
    X=     2.7630    Y=     1.0377    Z=     2.4831  Tot=     3.8570
 Quadrupole moment (field-independent basis, Debye-Ang):
   XX=  -105.6614   YY=   -96.2189   ZZ=  -105.0604
   XY=   -11.6763   XZ=    -6.2092   YZ=     2.3173
 Traceless Quadrupole moment (field-independent basis, Debye-Ang):
   XX=    -3.3479   YY=     6.0947   ZZ=    -2.7468
   XY=   -11.6763   XZ=    -6.2092   YZ=     2.3173
 Octapole moment (field-independent basis, Debye-Ang**2):
  XXX=   104.0180  YYY=    57.2609  ZZZ=    -2.9956  XYY=    18.7219
  XXY=    11.2988  XXZ=    19.2468  XZZ=    -7.6709  YZZ=    14.0185
  YYZ=    17.0267  XYZ=     9.0983
 Hexadecapole moment (field-independent basis, Debye-Ang**3):
 XXXX= -4565.5418 YYYY= -1723.2144 ZZZZ=  -549.7577 XXXY=  -184.0332
 XXXZ=  -112.9102 YYYX=  -186.1580 YYYZ=   -44.5855 ZZZX=    -2.2053
 ZZZY=   -17.1111 XXYY= -1138.4374 XXZZ=  -826.6657 YYZZ=  -359.8634
 XXYZ=    -2.9041 YYXZ=   -63.3885 ZZXY=   -28.1243
 N-N= 1.291183223141D+03 E-N=-4.671236944751D+03  KE= 8.891007077669D+02
 Calculating spin-rotation constants.
 Leave Link  601 at Wed May  2 20:14:55 2012, MaxMem=  458752000 cpu:      49.7
 (Enter /usr/g03/l9999.exe)
 1\1\GINC-FORGE\SP\RB3LYP\6-311+G(d,p)\C9H15N3O5\JEANNERA\02-May-2012\0
 \\#P B3LYP/6-311+G** NMR=SPINSPIN\\empty\\0,1\C,0,-0.24584,2.169456,0.
 1242\C,0,0.626935,1.14039,0.870052\O,0,-0.295247,0.300551,1.570527\C,0
 ,-1.606181,0.351016,0.960773\C,0,-1.540752,1.383415,-0.17247\C,0,1.456
 602,0.277644,-0.087017\C,0,-1.953988,-1.072453,0.529183\N,0,-3.347353,
 -1.087264,0.037757\N,0,-3.722732,-2.142731,-0.4784\N,0,-4.189216,-3.05
 8489,-0.97858\O,0,1.148752,0.070715,-1.252639\O,0,2.518163,-0.249822,0
 .522162\C,0,3.364191,-1.173322,-0.243144\C,0,3.97143,-2.121665,0.77980
 4\C,0,4.394316,-0.368554,-1.02683\H,0,4.594392,-1.575246,1.495982\H,0,
 4.597967,-2.863468,0.273092\H,0,3.189793,-2.650085,1.33409\H,0,2.70818
 2,-1.711387,-0.932672\H,0,3.904038,0.29972,-1.740079\H,0,5.047933,-1.0
 46111,-1.587171\H,0,5.015372,0.227356,-0.349217\H,0,-1.432877,0.878771
 ,-1.143756\H,0,-1.841436,-1.742579,1.391479\H,0,-1.255131,-1.398933,-0
 .252531\H,0,1.292947,1.591902,1.610188\H,0,-0.501582,2.975565,0.819605
 \H,0,-2.324037,0.695489,1.713984\O,0,0.34144,2.787216,-0.999629\H,0,-0
 .330833,3.399814,-1.350717\O,0,-2.701738,2.193158,-0.150559\H,0,-2.740
 847,2.608482,0.726079\\Version=AM64L-G03RevC.02\State=1-A\HF=-892.5383
 522\RMSD=3.688e-09\Dipole=1.0870411,0.4082677,0.9769214\PG=C01 [X(C9H1
 5N3O5)]\\@


 THERE ONCE WAS A GIRL NAMED IRENE,
 WHO LIVED ON DISTILLED KEROSENE,
      BUT SHE STARTED ABSORBIN'
      A NEW HYDROCARBON,
 AND SINCE THEN HAS NEVER BENZENE.
 Job cpu time:  0 days 15 hours 31 minutes 26.9 seconds.
 File lengths (MBytes):  RWF=   1715 Int=      0 D2E=      0 Chk=     21 Scr=      1
 Normal termination of Gaussian 03 at Wed May  2 20:14:58 2012.
