 Entering Gaussian System, Link 0=g09
 Initial command:
 /usr/g09/l1.exe /tmp/gauss.5518/Gau-5577.inp -scrdir=/tmp/gauss.5518/
 Entering Link 1 = /usr/g09/l1.exe PID=      5578.
  
 Copyright (c) 1988,1990,1992,1993,1995,1998,2003,2009,2011,
            Gaussian, Inc.  All Rights Reserved.
  
 This is part of the Gaussian(R) 09 program.  It is based on
 the Gaussian(R) 03 system (copyright 2003, Gaussian, Inc.),
 the Gaussian(R) 98 system (copyright 1998, Gaussian, Inc.),
 the Gaussian(R) 94 system (copyright 1995, Gaussian, Inc.),
 the Gaussian 92(TM) system (copyright 1992, Gaussian, Inc.),
 the Gaussian 90(TM) system (copyright 1990, Gaussian, Inc.),
 the Gaussian 88(TM) system (copyright 1988, Gaussian, Inc.),
 the Gaussian 86(TM) system (copyright 1986, Carnegie Mellon
 University), and the Gaussian 82(TM) system (copyright 1983,
 Carnegie Mellon University). Gaussian is a federally registered
 trademark of Gaussian, Inc.
  
 This software contains proprietary and confidential information,
 including trade secrets, belonging to Gaussian, Inc.
  
 This software is provided under written license and may be
 used, copied, transmitted, or stored only in accord with that
 written license.
  
 The following legend is applicable only to US Government
 contracts under FAR:
  
                    RESTRICTED RIGHTS LEGEND
  
 Use, reproduction and disclosure by the US Government is
 subject to restrictions as set forth in subparagraphs (a)
 and (c) of the Commercial Computer Software - Restricted
 Rights clause in FAR 52.227-19.
  
 Gaussian, Inc.
 340 Quinnipiac St., Bldg. 40, Wallingford CT 06492
  
  
 ---------------------------------------------------------------
 Warning -- This program may not be used in any manner that
 competes with the business of Gaussian, Inc. or will provide
 assistance to any competitor of Gaussian, Inc.  The licensee
 of this program is prohibited from giving any competitor of
 Gaussian, Inc. access to this program.  By using this program,
 the user acknowledges that Gaussian, Inc. is engaged in the
 business of creating and licensing software in the field of
 computational chemistry and represents and warrants to the
 licensee that it is not a competitor of Gaussian, Inc. and that
 it will not use this program in any manner prohibited above.
 ---------------------------------------------------------------
  

 Cite this work as:
 Gaussian 09, Revision C.01,
 M. J. Frisch, G. W. Trucks, H. B. Schlegel, G. E. Scuseria, 
 M. A. Robb, J. R. Cheeseman, G. Scalmani, V. Barone, B. Mennucci, 
 G. A. Petersson, H. Nakatsuji, M. Caricato, X. Li, H. P. Hratchian, 
 A. F. Izmaylov, J. Bloino, G. Zheng, J. L. Sonnenberg, M. Hada, 
 M. Ehara, K. Toyota, R. Fukuda, J. Hasegawa, M. Ishida, T. Nakajima, 
 Y. Honda, O. Kitao, H. Nakai, T. Vreven, J. A. Montgomery, Jr., 
 J. E. Peralta, F. Ogliaro, M. Bearpark, J. J. Heyd, E. Brothers, 
 K. N. Kudin, V. N. Staroverov, T. Keith, R. Kobayashi, J. Normand, 
 K. Raghavachari, A. Rendell, J. C. Burant, S. S. Iyengar, J. Tomasi, 
 M. Cossi, N. Rega, J. M. Millam, M. Klene, J. E. Knox, J. B. Cross, 
 V. Bakken, C. Adamo, J. Jaramillo, R. Gomperts, R. E. Stratmann, 
 O. Yazyev, A. J. Austin, R. Cammi, C. Pomelli, J. W. Ochterski, 
 R. L. Martin, K. Morokuma, V. G. Zakrzewski, G. A. Voth, 
 P. Salvador, J. J. Dannenberg, S. Dapprich, A. D. Daniels, 
 O. Farkas, J. B. Foresman, J. V. Ortiz, J. Cioslowski, 
 and D. J. Fox, Gaussian, Inc., Wallingford CT, 2010.
 
 ******************************************
 Gaussian 09:  AM64L-G09RevC.01 23-Sep-2011
                23-Sep-2013 
 ******************************************
 %mem=13500MB
 %nproc=6
 Will use up to    6 processors via shared memory.
 -------------------------------
 #p B3LYP/6-311+G** NMR=SPINSPIN
 -------------------------------
 1/38=1/1;
 2/12=2,17=6,18=5,40=1/2;
 3/5=4,6=6,7=111,11=2,16=1,25=1,30=1,74=-5/1,2,8,3;
 4//1;
 5/5=2,38=5/2;
 8/6=1,10=90,11=11/1;
 10/13=100,45=16,47=1/2;
 6/7=2,8=2,9=2,10=2,28=1/1;
 99/9=1/99;
 Leave Link    1 at Mon Sep 23 13:10:12 2013, MaxMem= 1769472000 cpu:       0.1
 (Enter /usr/g09/l101.exe)
 -----
 empty
 -----
 Charge =  0 Multiplicity = 1
 Symbolic Z-Matrix:
 1                     0.60596   3.35605  -0.22931 
 6                     0.95945   2.33314  -0.18554 
 6                     2.28876   2.09415  -0.28807 
 6                    -0.00901   1.26816  -0.05509 
 6                     2.81565   0.7669   -0.13278 
 1                     2.98818   2.91617  -0.42105 
 6                     0.46478  -0.10066  -0.08799 
 6                    -1.3778    1.57063   0.03306 
 6                     4.20874   0.56     -0.06069 
 6                     1.91547  -0.32568   0.03955 
 6                    -0.47545  -1.13224  -0.26405 
 6                    -2.31889   0.50903   0.0947 
 6                     4.73306  -0.68429   0.24241 
 1                     4.86807   1.41045  -0.21882 
 6                     2.48338  -1.56214   0.42586 
 6                    -1.86199  -0.84427  -0.10335 
 6                     3.85655  -1.74293   0.51864 
 1                     5.80823  -0.82938   0.30209 
 1                     4.24842  -2.7099    0.82258 
 6                    -2.83589  -1.89033  -0.10646 
 6                    -3.71692   0.72075   0.30642 
 6                    -4.1703   -1.64176   0.09917 
 1                    -4.88153  -2.4633    0.11093 
 6                    -4.61644  -0.31587   0.31197 
 1                    -5.67091  -0.11862   0.48557 
 1                    -2.51109  -2.91594  -0.23634 
 1                    -4.08477   1.72344   0.48801 
 1                     1.84141  -2.38612   0.70475 
 6                    -0.09387  -2.5269   -0.72501 
 1                     0.88607  -2.53485  -1.20343 
 1                    -0.07753  -3.27156   0.08277 
 1                    -0.81566  -2.88032  -1.46776 
 6                    -1.81858   3.02133   0.04574 
 1                    -1.41395   3.56214   0.91011 
 1                    -1.47369   3.54643  -0.85297 
 1                    -2.90146   3.13305   0.07186 
 
 NAtoms=     36 NQM=        0 NQMF=       0 NMMI=     36 NMMIF=      0
                NMic=       0 NMicF=      0.
                    Isotopes and Nuclear Properties:
 (Nuclear quadrupole moments (NQMom) in fm**2, nuclear magnetic moments (NMagM)
  in nuclear magnetons)

  Atom         1           2           3           4           5           6           7           8           9          10
 IAtWgt=           1          12          12          12          12           1          12          12          12          12
 AtmWgt=   1.0078250  12.0000000  12.0000000  12.0000000  12.0000000   1.0078250  12.0000000  12.0000000  12.0000000  12.0000000
 NucSpn=           1           0           0           0           0           1           0           0           0           0
 AtZEff=   0.0000000   0.0000000   0.0000000   0.0000000   0.0000000   0.0000000   0.0000000   0.0000000   0.0000000   0.0000000
 NQMom=    0.0000000   0.0000000   0.0000000   0.0000000   0.0000000   0.0000000   0.0000000   0.0000000   0.0000000   0.0000000
 NMagM=    2.7928460   0.0000000   0.0000000   0.0000000   0.0000000   2.7928460   0.0000000   0.0000000   0.0000000   0.0000000

  Atom        11          12          13          14          15          16          17          18          19          20
 IAtWgt=          12          12          12           1          12          12          12           1           1          12
 AtmWgt=  12.0000000  12.0000000  12.0000000   1.0078250  12.0000000  12.0000000  12.0000000   1.0078250   1.0078250  12.0000000
 NucSpn=           0           0           0           1           0           0           0           1           1           0
 AtZEff=   0.0000000   0.0000000   0.0000000   0.0000000   0.0000000   0.0000000   0.0000000   0.0000000   0.0000000   0.0000000
 NQMom=    0.0000000   0.0000000   0.0000000   0.0000000   0.0000000   0.0000000   0.0000000   0.0000000   0.0000000   0.0000000
 NMagM=    0.0000000   0.0000000   0.0000000   2.7928460   0.0000000   0.0000000   0.0000000   2.7928460   2.7928460   0.0000000

  Atom        21          22          23          24          25          26          27          28          29          30
 IAtWgt=          12          12           1          12           1           1           1           1          12           1
 AtmWgt=  12.0000000  12.0000000   1.0078250  12.0000000   1.0078250   1.0078250   1.0078250   1.0078250  12.0000000   1.0078250
 NucSpn=           0           0           1           0           1           1           1           1           0           1
 AtZEff=   0.0000000   0.0000000   0.0000000   0.0000000   0.0000000   0.0000000   0.0000000   0.0000000   0.0000000   0.0000000
 NQMom=    0.0000000   0.0000000   0.0000000   0.0000000   0.0000000   0.0000000   0.0000000   0.0000000   0.0000000   0.0000000
 NMagM=    0.0000000   0.0000000   2.7928460   0.0000000   2.7928460   2.7928460   2.7928460   2.7928460   0.0000000   2.7928460

  Atom        31          32          33          34          35          36
 IAtWgt=           1           1          12           1           1           1
 AtmWgt=   1.0078250   1.0078250  12.0000000   1.0078250   1.0078250   1.0078250
 NucSpn=           1           1           0           1           1           1
 AtZEff=   0.0000000   0.0000000   0.0000000   0.0000000   0.0000000   0.0000000
 NQMom=    0.0000000   0.0000000   0.0000000   0.0000000   0.0000000   0.0000000
 NMagM=    2.7928460   2.7928460   0.0000000   2.7928460   2.7928460   2.7928460
 Leave Link  101 at Mon Sep 23 13:10:12 2013, MaxMem= 1769472000 cpu:       0.6
 (Enter /usr/g09/l202.exe)
                          Input orientation:                          
 ---------------------------------------------------------------------
 Center     Atomic      Atomic             Coordinates (Angstroms)
 Number     Number       Type             X           Y           Z
 ---------------------------------------------------------------------
      1          1           0        0.605961    3.356047   -0.229310
      2          6           0        0.959449    2.333139   -0.185535
      3          6           0        2.288760    2.094149   -0.288069
      4          6           0       -0.009010    1.268163   -0.055086
      5          6           0        2.815651    0.766903   -0.132780
      6          1           0        2.988182    2.916170   -0.421053
      7          6           0        0.464782   -0.100661   -0.087992
      8          6           0       -1.377796    1.570634    0.033063
      9          6           0        4.208743    0.560003   -0.060688
     10          6           0        1.915474   -0.325675    0.039552
     11          6           0       -0.475447   -1.132235   -0.264049
     12          6           0       -2.318887    0.509034    0.094697
     13          6           0        4.733057   -0.684289    0.242410
     14          1           0        4.868068    1.410450   -0.218815
     15          6           0        2.483379   -1.562142    0.425855
     16          6           0       -1.861991   -0.844267   -0.103345
     17          6           0        3.856545   -1.742928    0.518639
     18          1           0        5.808229   -0.829383    0.302091
     19          1           0        4.248421   -2.709901    0.822584
     20          6           0       -2.835892   -1.890331   -0.106459
     21          6           0       -3.716920    0.720748    0.306418
     22          6           0       -4.170297   -1.641762    0.099167
     23          1           0       -4.881528   -2.463301    0.110927
     24          6           0       -4.616436   -0.315870    0.311974
     25          1           0       -5.670912   -0.118621    0.485570
     26          1           0       -2.511088   -2.915939   -0.236342
     27          1           0       -4.084773    1.723438    0.488008
     28          1           0        1.841409   -2.386120    0.704746
     29          6           0       -0.093873   -2.526898   -0.725014
     30          1           0        0.886068   -2.534848   -1.203431
     31          1           0       -0.077527   -3.271555    0.082768
     32          1           0       -0.815663   -2.880319   -1.467758
     33          6           0       -1.818579    3.021330    0.045744
     34          1           0       -1.413951    3.562143    0.910111
     35          1           0       -1.473693    3.546432   -0.852971
     36          1           0       -2.901459    3.133047    0.071858
 ---------------------------------------------------------------------
                    Distance matrix (angstroms):
                    1          2          3          4          5
     1  H    0.000000
     2  C    1.083149   0.000000
     3  C    2.104199   1.354510   0.000000
     4  C    2.183530   1.445373   2.452811   0.000000
     5  C    3.405248   2.429272   1.436423   2.869845   0.000000
     6  H    2.430069   2.123947   1.087472   3.439916   2.175366
     7  C    3.462475   2.485476   2.860790   1.448876   2.506244
     8  C    2.681759   2.468180   3.717637   1.404576   4.272995
     9  C    4.563588   3.703716   2.468125   4.276793   1.410216
    10  C    3.916911   2.834421   2.470268   2.500583   1.426094
    11  C    4.616852   3.751521   4.248643   2.454209   3.802010
    12  C    4.094533   3.762097   4.887690   2.436030   5.146040
    13  C    5.794804   4.850580   3.738411   5.136903   2.433757
    14  H    4.685191   4.016188   2.669283   4.881899   2.152666
    15  C    5.304953   4.227218   3.730419   3.801833   2.418042
    16  C    4.873325   4.250081   5.088924   2.810379   4.947431
    17  C    6.093051   5.050084   4.222782   4.933391   2.794111
    18  H    6.698045   5.809474   4.613241   6.194154   3.419469
    19  H    7.153301   6.104580   5.305913   5.892454   3.879912
    20  C    6.275821   5.678782   6.493930   4.239102   6.245120
    21  C    5.091081   4.970941   6.189333   3.765494   6.547481
    22  C    6.920884   6.495782   7.471707   5.080135   7.393168
    23  H    8.005817   7.563778   8.505444   6.139447   8.351058
    24  C    6.406980   6.193162   7.338254   4.885925   7.523704
    25  H    7.209959   7.100929   8.297665   5.854282   8.555014
    26  H    7.003846   6.292855   6.938458   4.878520   6.476743
    27  H    5.018261   5.125385   6.431302   4.136916   6.994011
    28  H    5.947375   4.882813   4.610707   4.165955   3.404725
    29  C    5.945127   5.002048   5.217465   3.854672   4.434546
    30  H    5.977459   4.973811   4.922707   4.072193   3.971290
    31  H    6.670057   5.706128   5.876020   4.542327   4.972533
    32  H    6.515138   5.654667   5.981174   4.456033   5.317033
    33  C    2.462942   2.871330   4.223900   2.521567   5.156588
    34  H    2.328261   2.888584   4.159412   2.857938   5.175956
    35  H    2.179486   2.799595   4.072382   2.823549   5.161679
    36  H    3.527382   3.951293   5.305396   3.443860   6.190788
                    6          7          8          9         10
     6  H    0.000000
     7  C    3.947119   0.000000
     8  C    4.591128   2.490577   0.000000
     9  C    2.677901   3.801903   5.677991   0.000000
    10  C    3.445638   1.473569   3.800218   2.460398   0.000000
    11  C    5.330193   1.406830   2.864962   4.984643   2.541499
    12  C    5.850238   2.855506   1.420016   6.529678   4.316201
    13  C    4.055623   4.320643   6.516980   1.383848   2.847548
    14  H    2.417036   4.657199   6.252993   1.087646   3.434923
    15  C    4.585560   2.544543   4.987709   2.777968   1.414425
    16  C    6.145405   2.442756   2.466738   6.231180   3.815573
    17  C    4.831591   3.816949   6.214001   2.400657   2.450691
    18  H    4.743919   5.406998   7.580990   2.149502   3.933979
    19  H    5.898094   4.685425   7.113413   3.387332   3.426414
    20  C    7.557861   3.754692   3.758163   7.458761   5.004493
    21  C    7.092777   4.279825   2.503703   7.935789   5.734987
    22  C    8.502305   4.888147   4.256985   8.664966   6.226737
    23  H    9.547463   5.848476   5.343672   9.581380   7.125572
    24  C    8.295398   5.101477   3.758388   8.876363   6.537596
    25  H    9.220186   6.162470   4.635643   9.917989   7.602306
    26  H    8.018079   4.099219   4.635328   7.567639   5.136150
    27  H    7.230193   4.935338   2.749191   8.392679   6.356331
    28  H    5.540468   2.783318   5.144934   3.856138   2.166426
    29  C    6.262463   2.569926   4.360379   5.336927   3.076917
    30  H    5.894455   2.710526   4.848606   4.682321   2.735896
    31  H    6.923897   3.221463   5.013977   5.750959   3.556983
    32  H    7.011713   3.357051   4.730691   6.249825   4.032034
    33  C    4.830519   3.870200   1.516235   6.511380   5.014542
    34  H    4.644142   4.235797   2.176380   6.447479   5.192116
    35  H    4.526821   4.200496   2.167494   6.468118   5.222668
    36  H    5.914209   4.670546   2.182702   7.562612   5.930147
                   11         12         13         14         15
    11  C    0.000000
    12  C    2.494140   0.000000
    13  C    5.252206   7.153723   0.000000
    14  H    5.917808   7.250046   2.149160   0.000000
    15  C    3.068459   5.240343   2.421844   3.865054   0.000000
    16  C    1.425221   1.442012   6.606043   7.098646   4.435948
    17  C    4.444289   6.586882   1.401889   3.392758   1.388120
    18  H    6.316393   8.239198   1.086558   2.484371   3.406887
    19  H    5.097522   7.349891   2.162077   4.294854   2.142456
    20  C    2.484199   2.462663   7.672368   8.382051   5.355904
    21  C    3.777053   1.429736   8.566232   8.628649   6.608295
    22  C    3.747460   2.837898   8.955835   9.545111   6.662167
    23  H    4.617997   3.924560   9.778671  10.496156   7.426515
    24  C    4.259817   2.450797   9.357008   9.654933   7.209267
    25  H    5.346232   3.432609  10.422172  10.672596   8.281291
    26  H    2.706696   3.446298   7.595203   8.553940   5.216893
    27  H    4.663442   2.178950   9.143938   8.986152   7.344353
    28  H    2.806887   5.105109   3.386977   4.942426   1.081132
    29  C    1.517621   3.852207   5.256460   6.354511   2.982865
    30  H    2.168752   4.606744   4.507144   5.691324   2.480349
    31  H    2.203477   4.395076   5.464536   6.816967   3.098071
    32  H    2.149526   4.023514   6.207698   7.230170   4.025797
    33  C    4.376309   2.562096   7.529557   6.883035   6.297582
    34  H    4.929161   3.287139   7.500914   6.735579   6.456158
    35  H    4.820088   3.292144   7.590955   6.721793   6.587211
    36  H    4.918435   2.688002   8.537387   7.963503   7.153083
                   16         17         18         19         20
    16  C    0.000000
    17  C    5.822037   0.000000
    18  H    7.680942   2.165763   0.000000
    19  H    6.455623   1.086732   2.498052   0.000000
    20  C    1.429246   6.723183   8.718564   7.191822   0.000000
    21  C    2.461288   7.966939   9.650461   8.688063   2.786469
    22  C    2.450569   8.038432  10.013597   8.516987   1.372846
    23  H    3.432898   8.777191  10.815597   9.160963   2.135457
    24  C    2.835253   8.594801  10.437310   9.196619   2.413369
    25  H    3.921895   9.664983  11.502588  10.257752   3.395113
    26  H    2.175049   6.518643   8.593873   6.845052   1.083623
    27  H    3.447255   8.664939  10.218755   9.445028   3.869421
    28  H    4.092126   2.123465   4.280330   2.431548   4.772945
    29  C    2.518722   4.215102   6.226661   4.613466   2.882099
    30  H    3.408824   3.523691   5.422442   3.929478   3.933413
    31  H    3.018390   4.243066   6.376083   4.424546   3.090658
    32  H    2.664945   5.202784   7.156441   5.560545   2.629551
    33  C    3.868715   7.424878   8.547626   8.382063   5.018217
    34  H    4.543598   7.488335   8.474377   8.450364   5.725802
    35  H    4.471124   7.633484   8.573699   8.642440   5.654313
    36  H    4.114634   8.345380   9.571443   9.264147   5.026970
                   21         22         23         24         25
    21  C    0.000000
    22  C    2.414530   0.000000
    23  H    3.395982   1.086699   0.000000
    24  C    1.372493   1.415032   2.173052   0.000000
    25  H    2.134179   2.172812   2.502201   1.086721   0.000000
    26  H    3.869640   2.118742   2.438127   3.390206   4.281429
    27  H    1.083364   3.388670   4.278527   2.114812   2.430848
    28  H    6.380150   6.087808   6.749553   6.792935   7.850131
    29  C    4.973683   4.252055   4.860502   5.139802   6.194245
    30  H    5.836613   5.297281   5.915895   6.123550   7.189219
    31  H    5.406818   4.405367   4.871601   5.421283   6.433444
    32  H    4.953047   3.904209   4.381485   4.918305   5.917424
    33  C    2.994049   5.222821   6.282283   4.363002   4.989309
    34  H    3.706971   5.944384   6.997768   5.064846   5.643578
    35  H    3.789557   5.924154   6.975624   5.113835   5.730703
    36  H    2.557182   4.940597   5.936439   3.859253   4.291197
                   26         27         28         29         30
    26  H    0.000000
    27  H    4.952271   0.000000
    28  H    4.484483   7.214920   0.000000
    29  C    2.496614   5.955171   2.410259   0.000000
    30  H    3.552627   6.760416   2.139144   1.090518   0.000000
    31  H    2.480023   6.416556   2.202991   1.098769   1.767925
    32  H    2.095739   5.975507   3.467569   1.094329   1.756447
    33  C    5.984171   2.648727   6.562798   5.861016   6.304496
    34  H    6.669603   3.269908   6.783906   6.441480   6.850580
    35  H    6.574090   3.455325   6.972199   6.229415   6.532477
    36  H    6.069399   1.886905   7.304557   6.368086   6.935183
                   31         32         33         34         35
    31  H    0.000000
    32  H    1.761261   0.000000
    33  C    6.529398   6.174625   0.000000
    34  H    7.012129   6.893296   1.096965   0.000000
    35  H    7.022096   6.489537   1.096525   1.764164   0.000000
    36  H    6.999546   6.548399   1.088941   1.760532   1.750632
                   36
    36  H    0.000000
 Stoichiometry    C20H16
 Framework group  C1[X(C20H16)]
 Deg. of freedom   102
 Full point group                 C1      NOp   1
 Largest Abelian subgroup         C1      NOp   1
 Largest concise Abelian subgroup C1      NOp   1
                         Standard orientation:                         
 ---------------------------------------------------------------------
 Center     Atomic      Atomic             Coordinates (Angstroms)
 Number     Number       Type             X           Y           Z
 ---------------------------------------------------------------------
      1          1           0       -0.605961    3.356047    0.229310
      2          6           0       -0.959449    2.333139    0.185535
      3          6           0       -2.288760    2.094149    0.288069
      4          6           0        0.009010    1.268163    0.055086
      5          6           0       -2.815651    0.766903    0.132780
      6          1           0       -2.988182    2.916170    0.421053
      7          6           0       -0.464782   -0.100661    0.087992
      8          6           0        1.377796    1.570634   -0.033063
      9          6           0       -4.208743    0.560003    0.060688
     10          6           0       -1.915474   -0.325675   -0.039552
     11          6           0        0.475447   -1.132235    0.264049
     12          6           0        2.318887    0.509034   -0.094697
     13          6           0       -4.733057   -0.684289   -0.242410
     14          1           0       -4.868068    1.410450    0.218815
     15          6           0       -2.483379   -1.562142   -0.425855
     16          6           0        1.861991   -0.844267    0.103345
     17          6           0       -3.856545   -1.742928   -0.518639
     18          1           0       -5.808229   -0.829383   -0.302091
     19          1           0       -4.248421   -2.709901   -0.822584
     20          6           0        2.835892   -1.890331    0.106459
     21          6           0        3.716920    0.720748   -0.306418
     22          6           0        4.170297   -1.641762   -0.099167
     23          1           0        4.881528   -2.463301   -0.110927
     24          6           0        4.616436   -0.315870   -0.311974
     25          1           0        5.670912   -0.118621   -0.485570
     26          1           0        2.511088   -2.915939    0.236342
     27          1           0        4.084773    1.723438   -0.488008
     28          1           0       -1.841409   -2.386120   -0.704746
     29          6           0        0.093873   -2.526898    0.725014
     30          1           0       -0.886068   -2.534848    1.203431
     31          1           0        0.077527   -3.271555   -0.082768
     32          1           0        0.815663   -2.880319    1.467758
     33          6           0        1.818579    3.021330   -0.045744
     34          1           0        1.413951    3.562143   -0.910111
     35          1           0        1.473693    3.546432    0.852971
     36          1           0        2.901459    3.133047   -0.071858
 ---------------------------------------------------------------------
 Rotational constants (GHZ):      0.7368582      0.2458653      0.1878044
 Leave Link  202 at Mon Sep 23 13:10:12 2013, MaxMem= 1769472000 cpu:       0.0
 (Enter /usr/g09/l301.exe)
 Standard basis: 6-311+G(d,p) (5D, 7F)
 Ernie: Thresh=  0.10000D-02 Tol=  0.10000D-05 Strict=F.
 There are   536 symmetry adapted basis functions of A   symmetry.
 Integral buffers will be    131072 words long.
 Raffenetti 2 integral format.
 Two-electron integral symmetry is turned on.
   536 basis functions,   848 primitive gaussians,   556 cartesian basis functions
    68 alpha electrons       68 beta electrons
       nuclear repulsion energy      1402.4980325939 Hartrees.
 IExCor=  402 DFT=T Ex+Corr=B3LYP ExCW=0 ScaHFX=  0.200000
 ScaDFX=  0.800000  0.720000  1.000000  0.810000 ScalE2=  1.000000  1.000000
 IRadAn=      0 IRanWt=     -1 IRanGd=            0 ICorTp=0
 NAtoms=   36 NActive=   36 NUniq=   36 SFac= 1.00D+00 NAtFMM=   60 NAOKFM=F Big=F
 Leave Link  301 at Mon Sep 23 13:10:12 2013, MaxMem= 1769472000 cpu:       0.3
 (Enter /usr/g09/l302.exe)
 NPDir=0 NMtPBC=     1 NCelOv=     1 NCel=       1 NClECP=     1 NCelD=      1
         NCelK=      1 NCelE2=     1 NClLst=     1 CellRange=     0.0.
 One-electron integrals computed using PRISM.
 NBasis=   536 RedAO= T  NBF=   536
 NBsUse=   525 1.00D-06 NBFU=   525
 Precomputing XC quadrature grid using
 IXCGrd= 2 IRadAn=           0 IRanWt=          -1 IRanGd=           0 AccXCQ= 0.00D+00.
 NRdTot=    2335 NPtTot=      298324 NUsed=      315150 NTot=      315182
 NSgBfM=   552   552   552   552   552 NAtAll=    36    36.
 Leave Link  302 at Mon Sep 23 13:10:13 2013, MaxMem= 1769472000 cpu:       6.2
 (Enter /usr/g09/l308.exe)
 Leave Link  308 at Mon Sep 23 13:10:14 2013, MaxMem= 1769472000 cpu:       1.0
 (Enter /usr/g09/l303.exe)
 DipDrv:  MaxL=1.
 Leave Link  303 at Mon Sep 23 13:10:14 2013, MaxMem= 1769472000 cpu:       0.9
 (Enter /usr/g09/l401.exe)
 Harris functional with IExCor=  402 diagonalized for initial guess.
 ExpMin= 4.38D-02 ExpMax= 4.56D+03 ExpMxC= 6.82D+02 IAcc=2 IRadAn=         4 AccDes= 0.00D+00
 HarFok:  IExCor=  402 AccDes= 0.00D+00 IRadAn=         4 IDoV= 1
 ScaDFX=  1.000000  1.000000  1.000000  1.000000
 FoFCou: FMM=F IPFlag=           0 FMFlag=      100000 FMFlg1=           0
         NFxFlg=           0 DoJE=T BraDBF=F KetDBF=T FulRan=T
         Omega=  0.000000  0.000000  1.000000  0.000000  0.000000 ICntrl=     500 IOpCl=  0
         NMat0=    1 NMatS0=    1 NMatT0=    0 NMatD0=    1 NMtDS0=    0 NMtDT0=    0
         I1Cent=           4 NGrid=           0.
 Petite list used in FoFCou.
 Harris En= -771.987766447831    
 Initial guess orbital symmetries:
       Occupied  (A) (A) (A) (A) (A) (A) (A) (A) (A) (A) (A) (A)
                 (A) (A) (A) (A) (A) (A) (A) (A) (A) (A) (A) (A)
                 (A) (A) (A) (A) (A) (A) (A) (A) (A) (A) (A) (A)
                 (A) (A) (A) (A) (A) (A) (A) (A) (A) (A) (A) (A)
                 (A) (A) (A) (A) (A) (A) (A) (A) (A) (A) (A) (A)
                 (A) (A) (A) (A) (A) (A) (A) (A)
       Virtual   (A) (A) (A) (A) (A) (A) (A) (A) (A) (A) (A) (A)
                 (A) (A) (A) (A) (A) (A) (A) (A) (A) (A) (A) (A)
                 (A) (A) (A) (A) (A) (A) (A) (A) (A) (A) (A) (A)
                 (A) (A) (A) (A) (A) (A) (A) (A) (A) (A) (A) (A)
                 (A) (A) (A) (A) (A) (A) (A) (A) (A) (A) (A) (A)
                 (A) (A) (A) (A) (A) (A) (A) (A) (A) (A) (A) (A)
                 (A) (A) (A) (A) (A) (A) (A) (A) (A) (A) (A) (A)
                 (A) (A) (A) (A) (A) (A) (A) (A) (A) (A) (A) (A)
                 (A) (A) (A) (A) (A) (A) (A) (A) (A) (A) (A) (A)
                 (A) (A) (A) (A) (A) (A) (A) (A) (A) (A) (A) (A)
                 (A) (A) (A) (A) (A) (A) (A) (A) (A) (A) (A) (A)
                 (A) (A) (A) (A) (A) (A) (A) (A) (A) (A) (A) (A)
                 (A) (A) (A) (A) (A) (A) (A) (A) (A) (A) (A) (A)
                 (A) (A) (A) (A) (A) (A) (A) (A) (A) (A) (A) (A)
                 (A) (A) (A) (A) (A) (A) (A) (A) (A) (A) (A) (A)
                 (A) (A) (A) (A) (A) (A) (A) (A) (A) (A) (A) (A)
                 (A) (A) (A) (A) (A) (A) (A) (A) (A) (A) (A) (A)
                 (A) (A) (A) (A) (A) (A) (A) (A) (A) (A) (A) (A)
                 (A) (A) (A) (A) (A) (A) (A) (A) (A) (A) (A) (A)
                 (A) (A) (A) (A) (A) (A) (A) (A) (A) (A) (A) (A)
                 (A) (A) (A) (A) (A) (A) (A) (A) (A) (A) (A) (A)
                 (A) (A) (A) (A) (A) (A) (A) (A) (A) (A) (A) (A)
                 (A) (A) (A) (A) (A) (A) (A) (A) (A) (A) (A) (A)
                 (A) (A) (A) (A) (A) (A) (A) (A) (A) (A) (A) (A)
                 (A) (A) (A) (A) (A) (A) (A) (A) (A) (A) (A) (A)
                 (A) (A) (A) (A) (A) (A) (A) (A) (A) (A) (A) (A)
                 (A) (A) (A) (A) (A) (A) (A) (A) (A) (A) (A) (A)
                 (A) (A) (A) (A) (A) (A) (A) (A) (A) (A) (A) (A)
                 (A) (A) (A) (A) (A) (A) (A) (A) (A) (A) (A) (A)
                 (A) (A) (A) (A) (A) (A) (A) (A) (A) (A) (A) (A)
                 (A) (A) (A) (A) (A) (A) (A) (A) (A) (A) (A) (A)
                 (A) (A) (A) (A) (A) (A) (A) (A) (A) (A) (A) (A)
                 (A) (A) (A) (A) (A) (A) (A) (A) (A) (A) (A) (A)
                 (A) (A) (A) (A) (A) (A) (A) (A) (A) (A) (A) (A)
                 (A) (A) (A) (A) (A) (A) (A) (A) (A) (A) (A) (A)
                 (A) (A) (A) (A) (A) (A) (A) (A) (A) (A) (A) (A)
                 (A) (A) (A) (A) (A) (A) (A) (A) (A) (A) (A) (A)
                 (A) (A) (A) (A) (A) (A) (A) (A) (A) (A) (A) (A)
                 (A)
 The electronic state of the initial guess is 1-A.
 Leave Link  401 at Mon Sep 23 13:10:18 2013, MaxMem= 1769472000 cpu:      24.7
 (Enter /usr/g09/l502.exe)
 Closed shell SCF:
 Requested convergence on RMS density matrix=1.00D-08 within 128 cycles.
 Requested convergence on MAX density matrix=1.00D-06.
 Requested convergence on             energy=1.00D-06.
 No special actions if energy rises.
 Using DIIS extrapolation, IDIIS=  1040.
 Integral symmetry usage will be decided dynamically.
       314813 words used for storage of precomputed grid.
 IEnd=     1267831 IEndB=     1267831 NGot=  1769472000 MDV=  1768530502
 LenX=  1768530502 LenY=  1768220810
 Fock matrices will be formed incrementally for  20 cycles.

 Cycle   1  Pass 1  IDiag  1:
 FoFCou: FMM=F IPFlag=           0 FMFlag=      100000 FMFlg1=           0
         NFxFlg=           0 DoJE=F BraDBF=F KetDBF=F FulRan=T
         Omega=  0.000000  0.000000  1.000000  0.000000  0.000000 ICntrl=       0 IOpCl=  0
         NMat0=    1 NMatS0=    1 NMatT0=    0 NMatD0=    1 NMtDS0=    0 NMtDT0=    0
         I1Cent=           0 NGrid=           0.
 Symmetry not used in FoFCou.
 E= -771.540330294943    
 DIIS: error= 2.19D-02 at cycle   1 NSaved=   1.
 NSaved= 1 IEnMin= 1 EnMin= -771.540330294943     IErMin= 1 ErrMin= 2.19D-02
 ErrMax= 2.19D-02 EMaxC= 1.00D-01 BMatC= 4.35D-01 BMatP= 4.35D-01
 IDIUse=3 WtCom= 7.81D-01 WtEn= 2.19D-01
 Coeff-Com:  0.100D+01
 Coeff-En:   0.100D+01
 Coeff:      0.100D+01
 Gap=     0.134 Goal=   None    Shift=    0.000
 GapD=    0.134 DampG=1.000 DampE=0.500 DampFc=0.5000 IDamp=-1.
 Damping current iteration by 5.00D-01
 RMSDP=2.46D-02 MaxDP=1.92D+00              OVMax= 1.76D-01

 Cycle   2  Pass 1  IDiag  1:
 RMSU=  6.49D-03    CP:  1.20D+00
 E= -771.744692963641     Delta-E=       -0.204362668698 Rises=F Damp=T
 DIIS: error= 3.84D-03 at cycle   2 NSaved=   2.
 NSaved= 2 IEnMin= 2 EnMin= -771.744692963641     IErMin= 2 ErrMin= 3.84D-03
 ErrMax= 3.84D-03 EMaxC= 1.00D-01 BMatC= 2.39D-02 BMatP= 4.35D-01
 IDIUse=3 WtCom= 9.62D-01 WtEn= 3.84D-02
 Coeff-Com: -0.260D-01 0.103D+01
 Coeff-En:   0.419D-02 0.996D+00
 Coeff:     -0.248D-01 0.102D+01
 Gap=     0.205 Goal=   None    Shift=    0.000
 RMSDP=1.52D-02 MaxDP=1.10D+00 DE=-2.04D-01 OVMax= 9.92D-02

 Cycle   3  Pass 1  IDiag  1:
 RMSU=  2.87D-03    CP:  9.00D-01  1.16D-01
 E= -771.962102148685     Delta-E=       -0.217409185044 Rises=F Damp=F
 DIIS: error= 3.43D-03 at cycle   3 NSaved=   3.
 NSaved= 3 IEnMin= 3 EnMin= -771.962102148685     IErMin= 3 ErrMin= 3.43D-03
 ErrMax= 3.43D-03 EMaxC= 1.00D-01 BMatC= 1.14D-02 BMatP= 2.39D-02
 IDIUse=3 WtCom= 9.66D-01 WtEn= 3.43D-02
 Coeff-Com: -0.698D-01 0.411D+00 0.658D+00
 Coeff-En:   0.000D+00 0.000D+00 0.100D+01
 Coeff:     -0.674D-01 0.397D+00 0.670D+00
 Gap=     0.131 Goal=   None    Shift=    0.000
 RMSDP=2.79D-03 MaxDP=1.43D-01 DE=-2.17D-01 OVMax= 4.77D-02

 Cycle   4  Pass 1  IDiag  1:
 RMSU=  1.46D-03    CP:  9.23D-01  2.27D-01  6.87D-01
 E= -771.966747114964     Delta-E=       -0.004644966279 Rises=F Damp=F
 DIIS: error= 3.99D-03 at cycle   4 NSaved=   4.
 NSaved= 4 IEnMin= 4 EnMin= -771.966747114964     IErMin= 3 ErrMin= 3.43D-03
 ErrMax= 3.99D-03 EMaxC= 1.00D-01 BMatC= 5.85D-03 BMatP= 1.14D-02
 IDIUse=3 WtCom= 9.60D-01 WtEn= 3.99D-02
 Coeff-Com: -0.449D-01 0.175D+00 0.457D+00 0.413D+00
 Coeff-En:   0.000D+00 0.000D+00 0.385D+00 0.615D+00
 Coeff:     -0.431D-01 0.168D+00 0.454D+00 0.421D+00
 Gap=     0.129 Goal=   None    Shift=    0.000
 RMSDP=1.59D-03 MaxDP=9.02D-02 DE=-4.64D-03 OVMax= 3.16D-02

 Cycle   5  Pass 1  IDiag  1:
 RMSU=  5.42D-04    CP:  9.36D-01  3.06D-01  7.39D-01  4.96D-01
 E= -771.973400523997     Delta-E=       -0.006653409034 Rises=F Damp=F
 DIIS: error= 9.24D-04 at cycle   5 NSaved=   5.
 NSaved= 5 IEnMin= 5 EnMin= -771.973400523997     IErMin= 5 ErrMin= 9.24D-04
 ErrMax= 9.24D-04 EMaxC= 1.00D-01 BMatC= 3.08D-04 BMatP= 5.85D-03
 IDIUse=3 WtCom= 9.91D-01 WtEn= 9.24D-03
 Coeff-Com: -0.146D-01 0.389D-01 0.147D+00 0.233D+00 0.595D+00
 Coeff-En:   0.000D+00 0.000D+00 0.000D+00 0.189D-01 0.981D+00
 Coeff:     -0.145D-01 0.386D-01 0.146D+00 0.231D+00 0.599D+00
 Gap=     0.129 Goal=   None    Shift=    0.000
 RMSDP=4.34D-04 MaxDP=1.87D-02 DE=-6.65D-03 OVMax= 6.56D-03

 Cycle   6  Pass 1  IDiag  1:
 RMSU=  1.16D-04    CP:  9.30D-01  2.80D-01  7.55D-01  5.42D-01  7.81D-01
 E= -771.973723360247     Delta-E=       -0.000322836250 Rises=F Damp=F
 DIIS: error= 2.87D-04 at cycle   6 NSaved=   6.
 NSaved= 6 IEnMin= 6 EnMin= -771.973723360247     IErMin= 6 ErrMin= 2.87D-04
 ErrMax= 2.87D-04 EMaxC= 1.00D-01 BMatC= 4.12D-05 BMatP= 3.08D-04
 IDIUse=3 WtCom= 9.97D-01 WtEn= 2.87D-03
 Coeff-Com: -0.552D-02 0.105D-01 0.555D-01 0.112D+00 0.369D+00 0.458D+00
 Coeff-En:   0.000D+00 0.000D+00 0.000D+00 0.000D+00 0.414D-01 0.959D+00
 Coeff:     -0.551D-02 0.104D-01 0.554D-01 0.112D+00 0.368D+00 0.460D+00
 Gap=     0.129 Goal=   None    Shift=    0.000
 RMSDP=8.76D-05 MaxDP=8.28D-03 DE=-3.23D-04 OVMax= 1.56D-03

 Cycle   7  Pass 1  IDiag  1:
 RMSU=  2.35D-05    CP:  9.29D-01  2.78D-01  7.54D-01  5.57D-01  7.82D-01
                    CP:  6.10D-01
 E= -771.973763192497     Delta-E=       -0.000039832250 Rises=F Damp=F
 DIIS: error= 5.17D-05 at cycle   7 NSaved=   7.
 NSaved= 7 IEnMin= 7 EnMin= -771.973763192497     IErMin= 7 ErrMin= 5.17D-05
 ErrMax= 5.17D-05 EMaxC= 1.00D-01 BMatC= 1.27D-06 BMatP= 4.12D-05
 IDIUse=1 WtCom= 1.00D+00 WtEn= 0.00D+00
 Coeff-Com: -0.186D-02 0.288D-02 0.193D-01 0.419D-01 0.148D+00 0.227D+00
 Coeff-Com:  0.562D+00
 Coeff:     -0.186D-02 0.288D-02 0.193D-01 0.419D-01 0.148D+00 0.227D+00
 Coeff:      0.562D+00
 Gap=     0.129 Goal=   None    Shift=    0.000
 RMSDP=2.49D-05 MaxDP=1.19D-03 DE=-3.98D-05 OVMax= 6.91D-04

 Cycle   8  Pass 1  IDiag  1:
 RMSU=  1.11D-05    CP:  9.29D-01  2.78D-01  7.55D-01  5.58D-01  7.80D-01
                    CP:  6.48D-01  5.16D-01
 E= -771.973764088071     Delta-E=       -0.000000895574 Rises=F Damp=F
 DIIS: error= 3.97D-05 at cycle   8 NSaved=   8.
 NSaved= 8 IEnMin= 8 EnMin= -771.973764088071     IErMin= 8 ErrMin= 3.97D-05
 ErrMax= 3.97D-05 EMaxC= 1.00D-01 BMatC= 4.79D-07 BMatP= 1.27D-06
 IDIUse=1 WtCom= 1.00D+00 WtEn= 0.00D+00
 Coeff-Com: -0.220D-03-0.350D-04 0.274D-02 0.765D-02 0.330D-01 0.718D-01
 Coeff-Com:  0.394D+00 0.491D+00
 Coeff:     -0.220D-03-0.350D-04 0.274D-02 0.765D-02 0.330D-01 0.718D-01
 Coeff:      0.394D+00 0.491D+00
 Gap=     0.129 Goal=   None    Shift=    0.000
 RMSDP=1.61D-05 MaxDP=1.10D-03 DE=-8.96D-07 OVMax= 3.89D-04

 Cycle   9  Pass 1  IDiag  1:
 RMSU=  3.53D-06    CP:  9.29D-01  2.78D-01  7.55D-01  5.58D-01  7.79D-01
                    CP:  6.18D-01  6.62D-01  5.88D-01
 E= -771.973764582327     Delta-E=       -0.000000494256 Rises=F Damp=F
 DIIS: error= 1.11D-05 at cycle   9 NSaved=   9.
 NSaved= 9 IEnMin= 9 EnMin= -771.973764582327     IErMin= 9 ErrMin= 1.11D-05
 ErrMax= 1.11D-05 EMaxC= 1.00D-01 BMatC= 3.04D-08 BMatP= 4.79D-07
 IDIUse=1 WtCom= 1.00D+00 WtEn= 0.00D+00
 Coeff-Com:  0.483D-05-0.217D-03 0.212D-03 0.138D-02 0.856D-02 0.246D-01
 Coeff-Com:  0.184D+00 0.284D+00 0.497D+00
 Coeff:      0.483D-05-0.217D-03 0.212D-03 0.138D-02 0.856D-02 0.246D-01
 Coeff:      0.184D+00 0.284D+00 0.497D+00
 Gap=     0.129 Goal=   None    Shift=    0.000
 RMSDP=3.18D-06 MaxDP=1.94D-04 DE=-4.94D-07 OVMax= 1.30D-04

 Cycle  10  Pass 1  IDiag  1:
 RMSU=  1.25D-06    CP:  9.29D-01  2.78D-01  7.55D-01  5.58D-01  7.79D-01
                    CP:  6.25D-01  6.52D-01  6.23D-01  6.52D-01
 E= -771.973764610914     Delta-E=       -0.000000028587 Rises=F Damp=F
 DIIS: error= 4.19D-06 at cycle  10 NSaved=  10.
 NSaved=10 IEnMin=10 EnMin= -771.973764610914     IErMin=10 ErrMin= 4.19D-06
 ErrMax= 4.19D-06 EMaxC= 1.00D-01 BMatC= 5.18D-09 BMatP= 3.04D-08
 IDIUse=1 WtCom= 1.00D+00 WtEn= 0.00D+00
 Coeff-Com:  0.355D-04-0.113D-03-0.312D-03-0.444D-03-0.226D-03 0.275D-02
 Coeff-Com:  0.423D-01 0.865D-01 0.316D+00 0.553D+00
 Coeff:      0.355D-04-0.113D-03-0.312D-03-0.444D-03-0.226D-03 0.275D-02
 Coeff:      0.423D-01 0.865D-01 0.316D+00 0.553D+00
 Gap=     0.129 Goal=   None    Shift=    0.000
 RMSDP=9.73D-07 MaxDP=4.72D-05 DE=-2.86D-08 OVMax= 4.09D-05

 Cycle  11  Pass 1  IDiag  1:
 RMSU=  4.06D-07    CP:  9.29D-01  2.78D-01  7.55D-01  5.58D-01  7.79D-01
                    CP:  6.25D-01  6.58D-01  6.19D-01  7.17D-01  6.65D-01
 E= -771.973764616389     Delta-E=       -0.000000005475 Rises=F Damp=F
 DIIS: error= 7.38D-07 at cycle  11 NSaved=  11.
 NSaved=11 IEnMin=11 EnMin= -771.973764616389     IErMin=11 ErrMin= 7.38D-07
 ErrMax= 7.38D-07 EMaxC= 1.00D-01 BMatC= 3.61D-10 BMatP= 5.18D-09
 IDIUse=1 WtCom= 1.00D+00 WtEn= 0.00D+00
 Coeff-Com:  0.179D-04-0.465D-04-0.182D-03-0.320D-03-0.548D-03 0.222D-03
 Coeff-Com:  0.128D-01 0.315D-01 0.146D+00 0.311D+00 0.499D+00
 Coeff:      0.179D-04-0.465D-04-0.182D-03-0.320D-03-0.548D-03 0.222D-03
 Coeff:      0.128D-01 0.315D-01 0.146D+00 0.311D+00 0.499D+00
 Gap=     0.129 Goal=   None    Shift=    0.000
 RMSDP=2.58D-07 MaxDP=1.22D-05 DE=-5.47D-09 OVMax= 7.58D-06

 Cycle  12  Pass 1  IDiag  1:
 RMSU=  1.22D-07    CP:  9.29D-01  2.78D-01  7.55D-01  5.58D-01  7.79D-01
                    CP:  6.25D-01  6.56D-01  6.27D-01  7.27D-01  6.66D-01
                    CP:  8.64D-01
 E= -771.973764616720     Delta-E=       -0.000000000331 Rises=F Damp=F
 DIIS: error= 2.39D-07 at cycle  12 NSaved=  12.
 NSaved=12 IEnMin=12 EnMin= -771.973764616720     IErMin=12 ErrMin= 2.39D-07
 ErrMax= 2.39D-07 EMaxC= 1.00D-01 BMatC= 4.65D-11 BMatP= 3.61D-10
 IDIUse=1 WtCom= 1.00D+00 WtEn= 0.00D+00
 Coeff-Com:  0.361D-05-0.692D-05-0.503D-04-0.105D-03-0.245D-03-0.267D-03
 Coeff-Com:  0.361D-03 0.374D-02 0.309D-01 0.860D-01 0.290D+00 0.590D+00
 Coeff:      0.361D-05-0.692D-05-0.503D-04-0.105D-03-0.245D-03-0.267D-03
 Coeff:      0.361D-03 0.374D-02 0.309D-01 0.860D-01 0.290D+00 0.590D+00
 Gap=     0.129 Goal=   None    Shift=    0.000
 RMSDP=1.03D-07 MaxDP=5.07D-06 DE=-3.31D-10 OVMax= 2.84D-06

 Cycle  13  Pass 1  IDiag  1:
 RMSU=  5.17D-08    CP:  9.29D-01  2.78D-01  7.55D-01  5.58D-01  7.79D-01
                    CP:  6.25D-01  6.56D-01  6.26D-01  7.28D-01  6.79D-01
                    CP:  8.99D-01  8.47D-01
 E= -771.973764616778     Delta-E=       -0.000000000058 Rises=F Damp=F
 DIIS: error= 9.16D-08 at cycle  13 NSaved=  13.
 NSaved=13 IEnMin=13 EnMin= -771.973764616778     IErMin=13 ErrMin= 9.16D-08
 ErrMax= 9.16D-08 EMaxC= 1.00D-01 BMatC= 5.15D-12 BMatP= 4.65D-11
 IDIUse=1 WtCom= 1.00D+00 WtEn= 0.00D+00
 Coeff-Com:  0.612D-06-0.262D-06-0.149D-04-0.344D-04-0.104D-03-0.179D-03
 Coeff-Com: -0.100D-02-0.855D-03 0.420D-02 0.204D-01 0.119D+00 0.334D+00
 Coeff-Com:  0.525D+00
 Coeff:      0.612D-06-0.262D-06-0.149D-04-0.344D-04-0.104D-03-0.179D-03
 Coeff:     -0.100D-02-0.855D-03 0.420D-02 0.204D-01 0.119D+00 0.334D+00
 Coeff:      0.525D+00
 Gap=     0.129 Goal=   None    Shift=    0.000
 RMSDP=6.10D-08 MaxDP=3.28D-06 DE=-5.82D-11 OVMax= 1.23D-06

 Cycle  14  Pass 1  IDiag  1:
 RMSU=  1.59D-08    CP:  9.29D-01  2.78D-01  7.55D-01  5.58D-01  7.79D-01
                    CP:  6.25D-01  6.56D-01  6.26D-01  7.31D-01  6.83D-01
                    CP:  8.91D-01  8.31D-01  5.62D-01
 E= -771.973764616777     Delta-E=        0.000000000001 Rises=F Damp=F
 DIIS: error= 3.58D-08 at cycle  14 NSaved=  14.
 NSaved=14 IEnMin=13 EnMin= -771.973764616778     IErMin=14 ErrMin= 3.58D-08
 ErrMax= 3.58D-08 EMaxC= 1.00D-01 BMatC= 6.41D-13 BMatP= 5.15D-12
 IDIUse=1 WtCom= 1.00D+00 WtEn= 0.00D+00
 Coeff-Com: -0.189D-06 0.853D-06-0.680D-06-0.316D-05-0.240D-04-0.580D-04
 Coeff-Com: -0.617D-03-0.110D-02-0.264D-02-0.280D-02 0.164D-01 0.834D-01
 Coeff-Com:  0.290D+00 0.617D+00
 Coeff:     -0.189D-06 0.853D-06-0.680D-06-0.316D-05-0.240D-04-0.580D-04
 Coeff:     -0.617D-03-0.110D-02-0.264D-02-0.280D-02 0.164D-01 0.834D-01
 Coeff:      0.290D+00 0.617D+00
 Gap=     0.129 Goal=   None    Shift=    0.000
 RMSDP=2.45D-08 MaxDP=1.39D-06 DE= 9.09D-13 OVMax= 6.08D-07

 Cycle  15  Pass 1  IDiag  1:
 RMSU=  7.53D-09    CP:  9.29D-01  2.78D-01  7.55D-01  5.58D-01  7.79D-01
                    CP:  6.25D-01  6.56D-01  6.26D-01  7.30D-01  6.83D-01
                    CP:  9.12D-01  8.53D-01  7.05D-01  7.21D-01
 E= -771.973764616786     Delta-E=       -0.000000000009 Rises=F Damp=F
 DIIS: error= 1.62D-08 at cycle  15 NSaved=  15.
 NSaved=15 IEnMin=15 EnMin= -771.973764616786     IErMin=15 ErrMin= 1.62D-08
 ErrMax= 1.62D-08 EMaxC= 1.00D-01 BMatC= 1.33D-13 BMatP= 6.41D-13
 IDIUse=1 WtCom= 1.00D+00 WtEn= 0.00D+00
 Coeff-Com: -0.192D-06 0.568D-06 0.160D-05 0.251D-05-0.145D-05-0.105D-04
 Coeff-Com: -0.234D-03-0.536D-03-0.205D-02-0.419D-02-0.566D-02 0.692D-02
 Coeff-Com:  0.107D+00 0.381D+00 0.518D+00
 Coeff:     -0.192D-06 0.568D-06 0.160D-05 0.251D-05-0.145D-05-0.105D-04
 Coeff:     -0.234D-03-0.536D-03-0.205D-02-0.419D-02-0.566D-02 0.692D-02
 Coeff:      0.107D+00 0.381D+00 0.518D+00
 Gap=     0.129 Goal=   None    Shift=    0.000
 RMSDP=6.88D-09 MaxDP=3.52D-07 DE=-9.09D-12 OVMax= 1.61D-07

 SCF Done:  E(RB3LYP) =  -771.973764617     A.U. after   15 cycles
             Convg  =    0.6876D-08             -V/T =  2.0048
 KE= 7.682653580878D+02 PE=-4.594940935725D+03 EE= 1.652203780427D+03
 Leave Link  502 at Mon Sep 23 13:19:10 2013, MaxMem= 1769472000 cpu:    3185.7
 (Enter /usr/g09/l801.exe)
 Range of M.O.s used for correlation:     1   525
 NBasis=   536 NAE=    68 NBE=    68 NFC=     0 NFV=     0
 NROrb=    525 NOA=    68 NOB=    68 NVA=   457 NVB=   457

 **** Warning!!: The largest alpha MO coefficient is  0.91520395D+02

 Leave Link  801 at Mon Sep 23 13:19:10 2013, MaxMem= 1769472000 cpu:       0.3
 (Enter /usr/g09/l1002.exe)
 Minotr:  Closed shell wavefunction.
          IDoAtm=111111111111111111111111111111111111
          Direct CPHF calculation.
          Differentiating once with respect to magnetic field using GIAOs.
          Differentiating once with respect to nuclear magnetic moments.
          Differentiating once with respect to Fermi-contact and electric field gradient.
          Electric field/nuclear overlap derivatives assumed to be zero.
          Requested convergence is 1.0D-10 RMS, and 1.0D-09 maximum.
          Secondary convergence is 1.0D-12 RMS, and 1.0D-12 maximum.
          NewPWx=T KeepS1=F KeepF1=F KeepIn=T MapXYZ=F SortEE=F KeepMc=T.
          MDV=    1769471636 using IRadAn=       0.
 Generate precomputed XC quadrature information.
          Solving linear equations simultaneously, MaxMat=       0.
 FoFCou: FMM=F IPFlag=           0 FMFlag=           0 FMFlg1=           0
         NFxFlg=           0 DoJE=F BraDBF=F KetDBF=T FulRan=T
         Omega=  0.000000  0.000000  1.000000  0.000000  0.000000 ICntrl=    6100 IOpCl=  0
         NMat0=    1 NMatS0=    1 NMatT0=    0 NMatD0=    1 NMtDS0=    0 NMtDT0=    0
         I1Cent=           7 NGrid=          36.
 Symmetry not used in FoFCou.
 Integrals replicated using symmetry in FoFDir.
 MinBra= 0 MaxBra= 2 Meth= 1.
 IRaf=       0 NMat= 111 IRICut=     277 DoRegI=T DoRafI=T ISym2E= 2 JSym2E=2.
          There are   111 degrees of freedom in the 1st order CPHF.  IDoFFX=0.
    111 vectors produced by pass  0 Test12= 3.11D-18 1.00D-11 XBig12= 1.14D+03 7.44D+00.
 AX will form   111 AO Fock derivatives at one time.
    111 vectors produced by pass  1 Test12= 3.11D-18 1.00D-11 XBig12= 1.71D+00 2.82D-01.
    111 vectors produced by pass  2 Test12= 3.11D-18 1.00D-11 XBig12= 4.29D-03 1.71D-02.
    111 vectors produced by pass  3 Test12= 3.11D-18 1.00D-11 XBig12= 5.01D-06 2.66D-04.
    111 vectors produced by pass  4 Test12= 3.11D-18 1.00D-11 XBig12= 4.16D-09 6.93D-06.
    111 vectors produced by pass  5 Test12= 3.11D-18 1.00D-11 XBig12= 3.57D-12 1.64D-07.
     90 vectors produced by pass  6 Test12= 3.11D-18 1.00D-11 XBig12= 2.60D-15 4.68D-09.
      8 vectors produced by pass  7 Test12= 3.11D-18 1.00D-11 XBig12= 1.71D-18 9.72D-11.
 Inverted reduced A of dimension   764 with in-core refinement.
 Calculating GIAO nuclear magnetic shielding tensors.
 SCF GIAO Magnetic shielding tensor (ppm):
      1  H    Isotropic =    23.6630   Anisotropy =    11.5681
   XX=    31.2028   YX=    -0.6589   ZX=    -0.9380
   XY=    -0.4797   YY=    22.6673   ZY=     0.1487
   XZ=    -1.8187   YZ=     0.1187   ZZ=    17.1188
   Eigenvalues:    16.9841    22.6298    31.3750
      2  C    Isotropic =    53.7471   Anisotropy =   159.3687
   XX=    53.3191   YX=    -5.0662   ZX=     9.1807
   XY=    -4.9018   YY=   -50.3720   ZY=   -14.5273
   XZ=     3.6978   YZ=   -18.0548   ZZ=   158.2940
   Eigenvalues:   -51.8267    53.0751   159.9928
      3  C    Isotropic =    50.5355   Anisotropy =   144.1956
   XX=    34.4962   YX=    38.3170   ZX=    13.6298
   XY=    41.3727   YY=   -26.7453   ZY=   -20.7872
   XZ=     8.8728   YZ=   -19.9369   ZZ=   143.8556
   Eigenvalues:   -49.1741    54.1146   146.6659
      4  C    Isotropic =    47.2928   Anisotropy =   192.2856
   XX=    -1.8183   YX=    13.7888   ZX=    14.3259
   XY=    11.9008   YY=   -31.3268   ZY=    -5.6883
   XZ=     3.4187   YZ=     0.8009   ZZ=   175.0235
   Eigenvalues:   -36.2735     2.6687   175.4832
      5  C    Isotropic =    43.0420   Anisotropy =   207.2475
   XX=   -17.6991   YX=   -10.9169   ZX=    -2.5606
   XY=    -5.4742   YY=   -28.8260   ZY=   -31.3921
   XZ=    -6.8599   YZ=   -36.5725   ZZ=   175.6512
   Eigenvalues:   -38.1573   -13.9236   181.2070
      6  H    Isotropic =    24.0293   Anisotropy =     7.7405
   XX=    27.9846   YX=     2.3146   ZX=    -0.0065
   XY=     2.1051   YY=    25.1341   ZY=     0.4636
   XZ=    -0.7307   YZ=     0.5590   ZZ=    18.9691
   Eigenvalues:    18.8909    24.0073    29.1896
      7  C    Isotropic =    47.6565   Anisotropy =   184.8831
   XX=   -24.9583   YX=   -18.5654   ZX=   -15.5706
   XY=   -19.1882   YY=    -2.2731   ZY=     9.0581
   XZ=    31.2819   YZ=     8.9275   ZZ=   170.2010
   Eigenvalues:   -36.2540     8.3116   170.9119
      8  C    Isotropic =    48.4224   Anisotropy =   163.5844
   XX=    17.5789   YX=   -14.4836   ZX=    10.8464
   XY=   -10.6592   YY=   -29.1443   ZY=     0.2693
   XZ=     7.8568   YZ=    -2.5307   ZZ=   156.8326
   Eigenvalues:   -32.3196    20.1081   157.4786
      9  C    Isotropic =    49.9948   Anisotropy =   158.2687
   XX=    -0.8378   YX=    51.5763   ZX=     6.4554
   XY=    45.5786   YY=     1.0968   ZY=   -33.4052
   XZ=    -0.3293   YZ=   -24.9666   ZZ=   149.7252
   Eigenvalues:   -51.0509    45.5279   155.5072
     10  C    Isotropic =    44.7674   Anisotropy =   192.6681
   XX=   -39.4812   YX=     1.0086   ZX=   -17.5453
   XY=    -5.3113   YY=     7.0540   ZY=   -39.5409
   XZ=    11.0664   YZ=   -25.9134   ZZ=   166.7295
   Eigenvalues:   -39.7028     0.7923   173.2129
     11  C    Isotropic =    46.0591   Anisotropy =   168.9970
   XX=     6.2028   YX=   -18.2218   ZX=    13.0691
   XY=   -14.0521   YY=   -19.2341   ZY=    48.6029
   XZ=     8.6181   YZ=    22.6461   ZZ=   151.2086
   Eigenvalues:   -34.3806    13.8341   158.7238
     12  C    Isotropic =    47.0742   Anisotropy =   204.1519
   XX=   -19.0554   YX=    -1.1334   ZX=    25.4029
   XY=    -5.1206   YY=   -18.8073   ZY=    16.4782
   XZ=    15.7482   YZ=    24.3189   ZZ=   179.0853
   Eigenvalues:   -26.1503   -15.8025   183.1755
     13  C    Isotropic =    51.6363   Anisotropy =   180.1042
   XX=   -56.9101   YX=    -7.8900   ZX=    -6.5487
   XY=    -6.2661   YY=    48.5847   ZY=   -31.7041
   XZ=   -11.3026   YZ=   -32.0415   ZZ=   163.2343
   Eigenvalues:   -57.9565    41.1596   171.7058
     14  H    Isotropic =    23.8272   Anisotropy =     7.5476
   XX=    26.7658   YX=     2.4532   ZX=     0.4059
   XY=     2.5766   YY=    25.5442   ZY=     0.9227
   XZ=     0.7010   YZ=     1.0924   ZZ=    19.1717
   Eigenvalues:    19.0122    23.6105    28.8590
     15  C    Isotropic =    46.3686   Anisotropy =   178.3436
   XX=     6.1932   YX=    33.2900   ZX=    10.9155
   XY=    32.7530   YY=   -12.7921   ZY=   -59.0413
   XZ=    17.1778   YZ=   -58.7956   ZZ=   145.7048
   Eigenvalues:   -53.6727    27.5142   165.2644
     16  C    Isotropic =    44.0660   Anisotropy =   204.7171
   XX=   -17.5995   YX=     8.2525   ZX=    21.6303
   XY=     4.4964   YY=   -27.5758   ZY=    24.4282
   XZ=    10.7748   YZ=    13.7108   ZZ=   177.3732
   Eigenvalues:   -31.2510   -17.0951   180.5440
     17  C    Isotropic =    53.6509   Anisotropy =   174.7714
   XX=    32.9872   YX=   -33.1303   ZX=   -12.6384
   XY=   -27.4002   YY=   -25.1430   ZY=   -58.3970
   XZ=   -17.1289   YZ=   -56.1115   ZZ=   153.1083
   Eigenvalues:   -54.5813    45.3688   170.1651
     18  H    Isotropic =    24.1132   Anisotropy =     5.2722
   XX=    24.6666   YX=    -0.2549   ZX=    -0.0676
   XY=    -0.1589   YY=    27.3358   ZY=     1.2880
   XZ=    -0.0235   YZ=     1.5517   ZZ=    20.3371
   Eigenvalues:    20.0600    24.6515    27.6280
     19  H    Isotropic =    24.0929   Anisotropy =     6.2966
   XX=    27.9870   YX=    -1.1351   ZX=    -0.0816
   XY=    -1.0574   YY=    24.2798   ZY=     0.5527
   XZ=     1.1110   YZ=     1.9169   ZZ=    20.0118
   Eigenvalues:    19.6060    24.3820    28.2906
     20  C    Isotropic =    51.7866   Anisotropy =   172.7283
   XX=    44.1845   YX=    -9.4102   ZX=    16.1618
   XY=    -7.3587   YY=   -51.4847   ZY=    22.2557
   XZ=    16.3867   YZ=    22.9603   ZZ=   162.6601
   Eigenvalues:   -54.8720    43.2931   166.9388
     21  C    Isotropic =    52.7672   Anisotropy =   172.5990
   XX=    20.2281   YX=   -38.4951   ZX=    25.6266
   XY=   -41.3966   YY=   -22.8810   ZY=    29.2019
   XZ=    20.2322   YZ=    32.0646   ZZ=   160.9544
   Eigenvalues:   -53.4755    43.9439   167.8332
     22  C    Isotropic =    52.8271   Anisotropy =   176.1349
   XX=    15.0620   YX=    50.7695   ZX=    15.8379
   XY=    49.3949   YY=   -22.0997   ZY=    14.0859
   XZ=    18.3383   YZ=    19.7003   ZZ=   165.5189
   Eigenvalues:   -57.0146    45.2454   170.2504
     23  H    Isotropic =    24.0224   Anisotropy =     6.1597
   XX=    27.0670   YX=     1.5291   ZX=    -0.9114
   XY=     1.5430   YY=    25.3326   ZY=    -0.5991
   XZ=    -1.2135   YZ=    -0.4499   ZZ=    19.6676
   Eigenvalues:    19.5011    24.4372    28.1289
     24  C    Isotropic =    52.9804   Anisotropy =   175.7608
   XX=   -42.9649   YX=   -27.0838   ZX=    32.9117
   XY=   -26.5038   YY=    38.5548   ZY=    18.9740
   XZ=    33.2861   YZ=    18.5499   ZZ=   163.3513
   Eigenvalues:   -57.2383    46.0252   170.1543
     25  H    Isotropic =    24.0578   Anisotropy =     6.1136
   XX=    24.9132   YX=    -1.2415   ZX=    -0.3500
   XY=    -1.3146   YY=    27.6199   ZY=    -0.4534
   XZ=    -0.8916   YZ=    -0.5054   ZZ=    19.6404
   Eigenvalues:    19.5186    24.5213    28.1335
     26  H    Isotropic =    23.2847   Anisotropy =    11.7356
   XX=    30.7762   YX=    -1.4546   ZX=    -1.5936
   XY=    -1.0481   YY=    22.0770   ZY=    -0.2743
   XZ=    -1.4698   YZ=    -0.2324   ZZ=    17.0008
   Eigenvalues:    16.8034    21.9423    31.1084
     27  H    Isotropic =    23.2143   Anisotropy =    11.4428
   XX=    28.2005   YX=    -3.3879   ZX=    -1.0690
   XY=    -4.3207   YY=    24.7450   ZY=     0.5174
   XZ=    -1.9746   YZ=     0.0677   ZZ=    16.6975
   Eigenvalues:    16.4935    22.3067    30.8428
     28  H    Isotropic =    23.1518   Anisotropy =    12.2576
   XX=    29.3675   YX=     2.2667   ZX=     3.2957
   XY=     1.6221   YY=    22.5404   ZY=     0.1067
   XZ=     4.8121   YZ=     3.9691   ZZ=    17.5475
   Eigenvalues:    15.9848    22.1470    31.3235
     29  C    Isotropic =   159.7830   Anisotropy =    14.5236
   XX=   157.3603   YX=     4.0408   ZX=    -1.1852
   XY=     5.6420   YY=   163.4511   ZY=    -5.3994
   XZ=     4.2191   YZ=    -9.0485   ZZ=   158.5376
   Eigenvalues:   150.6930   159.1906   169.4654
     30  H    Isotropic =    28.3238   Anisotropy =     7.2727
   XX=    33.0438   YX=    -1.1438   ZX=    -1.2564
   XY=    -0.4073   YY=    28.4437   ZY=    -1.7098
   XZ=    -0.1743   YZ=    -5.9185   ZZ=    23.4839
   Eigenvalues:    21.3291    30.4700    33.1723
     31  H    Isotropic =    28.3247   Anisotropy =     9.0460
   XX=    28.6335   YX=     0.8395   ZX=     0.3112
   XY=     0.1739   YY=    32.8573   ZY=     3.3092
   XZ=     1.5935   YZ=     4.4135   ZZ=    23.4833
   Eigenvalues:    22.0175    28.6013    34.3554
     32  H    Isotropic =    28.7152   Anisotropy =     8.7310
   XX=    30.9704   YX=    -0.4778   ZX=     1.5849
   XY=    -1.5834   YY=    28.7505   ZY=    -2.7624
   XZ=     2.3993   YZ=    -8.4800   ZZ=    26.4246
   Eigenvalues:    21.7571    29.8526    34.5359
     33  C    Isotropic =   167.4650   Anisotropy =    17.3897
   XX=   159.3632   YX=     5.4893   ZX=     0.3145
   XY=     6.5425   YY=   177.2168   ZY=     0.2257
   XZ=    -1.0619   YZ=    -0.4425   ZZ=   165.8151
   Eigenvalues:   157.5125   165.8245   179.0582
     34  H    Isotropic =    28.9112   Anisotropy =     9.1896
   XX=    28.7550   YX=    -0.0669   ZX=     0.8032
   XY=    -0.6510   YY=    31.1731   ZY=    -3.9615
   XZ=     0.4441   YZ=    -7.1754   ZZ=    26.8055
   Eigenvalues:    22.9908    28.7052    35.0376
     35  H    Isotropic =    28.9486   Anisotropy =     9.2766
   XX=    28.8017   YX=     0.9027   ZX=    -1.2220
   XY=    -0.5226   YY=    31.1464   ZY=     3.7455
   XZ=    -1.6227   YZ=     7.5670   ZZ=    26.8976
   Eigenvalues:    22.7104    29.0023    35.1330
     36  H    Isotropic =    28.4056   Anisotropy =     9.1761
   XX=    34.4411   YX=    -0.6905   ZX=    -0.9248
   XY=     1.2688   YY=    30.4615   ZY=    -0.0958
   XZ=    -1.0049   YZ=     1.0195   ZZ=    20.3142
   Eigenvalues:    20.2261    30.4678    34.5230
 Max diff in PS couplings:  IJMax=     8     5 Diff= 8.64D-11 IJMaxR=    34    21 DiffR= 2.96D-07
          There are   252 degrees of freedom in the 1st order CPHF.  IDoFFX=0.
    216 vectors produced by pass  0 Test12= 3.11D-18 1.00D-11 XBig12= 2.28D+01 2.43D+00.
    216 vectors produced by pass  1 Test12= 3.11D-18 1.00D-11 XBig12= 1.16D-01 9.18D-02.
    216 vectors produced by pass  2 Test12= 3.11D-18 1.00D-11 XBig12= 1.48D-03 3.64D-03.
    216 vectors produced by pass  3 Test12= 3.11D-18 1.00D-11 XBig12= 3.09D-06 1.96D-04.
    216 vectors produced by pass  4 Test12= 3.11D-18 1.00D-11 XBig12= 2.78D-09 4.39D-06.
    216 vectors produced by pass  5 Test12= 3.11D-18 1.00D-11 XBig12= 2.35D-12 1.09D-07.
    216 vectors produced by pass  6 Test12= 3.11D-18 1.00D-11 XBig12= 1.24D-15 1.99D-09.
    216 vectors produced by pass  7 Test12= 3.11D-18 1.00D-11 XBig12= 1.21D-17 2.97D-10.
     96 vectors produced by pass  8 Test12= 3.11D-18 1.00D-11 XBig12= 7.92D-19 5.67D-11.
 Inverted reduced A of dimension  1824 with in-core refinement.
 Max diff in FC couplings:  IJMax=    21    16 Diff= 1.17D-06 IJMaxR=    36    19 DiffR= 2.38D-04
 Max diff in SD couplings:  IJMax=    10     3 Diff= 6.45D-09 IJMaxR=    24    18 DiffR= 3.55D-05
 There are a total of      296280 grid points.
 ElSum from          density=      271.9994179609
 Fermi Contact (FC) contribution to K (Hz):
                1             2             3             4             5 
      1  0.000000D+00
      2  0.187734D+02  0.000000D+00
      3  0.150363D+00  0.386764D+02  0.000000D+00
      4  0.438604D+00  0.311348D+02 -0.350346D+00  0.000000D+00
      5  0.104367D+01 -0.362619D+00  0.300745D+02  0.262778D+01  0.000000D+00
      6  0.281388D+00  0.317164D+00  0.189071D+02  0.991464D+00  0.437963D+00
      7  0.650254D+00  0.512381D+00  0.209546D+01  0.310752D+02  0.365490D+00
      8  0.480692D+00  0.664915D+00  0.202300D+01  0.365946D+02 -0.499055D+00
      9 -0.182506D-01  0.214752D+01  0.158153D+01 -0.473919D+00  0.343858D+02
     10 -0.124704D+00  0.219206D+01  0.488168D+00  0.462274D+00  0.318572D+02
     11  0.734898D-01  0.150623D+01 -0.473802D+00 -0.720129D-01  0.153901D+01
     12 -0.690375D-01  0.183748D+01 -0.100920D+00  0.125626D+00  0.328024D+00
     13  0.886753D-01  0.103941D+00  0.214975D+01  0.316373D+00 -0.411539D+00
     14  0.111019D-01 -0.352870D-01  0.749425D+00  0.505076D-01  0.377427D+00
     15  0.618924D-01 -0.394798D+00  0.145398D+01  0.141541D+01  0.318034D-01
     16  0.452551D-01 -0.445000D+00  0.321821D+00  0.311887D+01 -0.527453D-01
     17 -0.560403D-01  0.287106D+00 -0.466737D+00 -0.538131D-01  0.351239D+01
     18  0.145702D-03  0.578132D-01  0.503970D-03 -0.462582D-01  0.888299D+00
     19  0.105782D-01 -0.574731D-01  0.806511D-01  0.788152D-01 -0.145240D+00
     20 -0.265205D-01  0.233874D+00 -0.217745D+00 -0.544836D+00  0.239569D+00
     21  0.331596D-01  0.821145D-01  0.293150D+00  0.167347D+01 -0.187434D+00
     22  0.227066D-01 -0.235389D+00  0.192685D+00  0.471564D+00 -0.158437D+00
     23 -0.373736D-02  0.399094D-01 -0.331496D-01 -0.705992D-01  0.289465D-01
     24 -0.217068D-01  0.329435D+00 -0.159815D+00 -0.241089D+00  0.175000D+00
     25  0.277400D-02 -0.199484D-01  0.243128D-01  0.106759D+00 -0.242269D-01
     26  0.292408D-02 -0.294036D-01  0.240557D-01  0.643678D-01 -0.247686D-01
     27 -0.343926D-02  0.451135D-01 -0.285192D-01 -0.991112D-01  0.253368D-01
     28 -0.593376D-02  0.321810D-01  0.123851D+00 -0.592873D-01  0.775743D+00
     29  0.669598D-01  0.889144D-01  0.124011D+00  0.158701D+01 -0.229404D+00
     30 -0.224476D-02  0.157734D-01 -0.139089D-01 -0.624438D-01  0.109517D-01
     31 -0.121090D-01  0.884239D-01 -0.841533D-01 -0.301752D+00  0.110447D+00
     32 -0.174237D-02  0.741560D-01 -0.423128D-01 -0.869605D-01  0.535043D-01
     33  0.312617D-01  0.274886D+01  0.323931D-01  0.100696D+01  0.206497D+00
     34  0.102283D-01 -0.519848D-01  0.966338D-01  0.348929D+00 -0.687381D-01
     35  0.319609D-02 -0.204188D-01  0.105892D+00  0.438724D+00 -0.565429D-01
     36  0.724229D-03  0.287101D+00  0.261448D-01  0.839783D+00  0.178396D-01
                6             7             8             9            10 
      6  0.000000D+00
      7 -0.128542D+00  0.000000D+00
      8 -0.332521D-01  0.348030D-01  0.000000D+00
      9  0.637154D+00  0.136842D+01  0.227105D+00  0.000000D+00
     10  0.625529D+00  0.319882D+02  0.145988D+01  0.300468D+00  0.000000D+00
     11  0.699517D-01  0.372568D+02  0.227715D+01 -0.329824D-01  0.882196D+00
     12  0.113143D+00  0.252760D+01  0.345871D+02 -0.178412D+00 -0.463394D+00
     13 -0.254752D-01 -0.454486D+00 -0.197123D+00  0.350378D+02  0.300774D+01
     14 -0.142198D-01  0.788666D-01 -0.284442D-01  0.187543D+02  0.738710D+00
     15  0.806897D-01  0.908446D+00 -0.152270D-01  0.315585D+01  0.341726D+02
     16 -0.593291D-01  0.307692D+00  0.150843D+00  0.255900D+00  0.201318D+01
     17  0.458171D-01  0.183305D+01  0.263541D+00 -0.432877D+00 -0.263339D+00
     18  0.417636D-02  0.708972D-01  0.267697D-01  0.349903D+00 -0.156121D+00
     19 -0.663177D-02  0.320452D-01 -0.178013D-01  0.920603D+00  0.943645D+00
     20  0.393805D-01  0.175733D+01  0.156519D+01 -0.862934D-01 -0.458957D-03
     21 -0.270024D-01 -0.526563D+00  0.713763D+00  0.104762D+00  0.215620D+00
     22 -0.355569D-01 -0.179888D+00 -0.568220D+00  0.976670D-01  0.289546D+00
     23  0.637992D-02  0.105093D+00  0.801908D-01 -0.129078D-01 -0.172695D-01
     24  0.350066D-01  0.443433D+00  0.195957D+01 -0.963815D-01 -0.212085D+00
     25 -0.326845D-02 -0.654623D-01 -0.737532D-02  0.140614D-01  0.335850D-01
     26 -0.431093D-02 -0.884900D-01  0.713336D-01  0.130751D-01  0.364800D-01
     27  0.533432D-02  0.594792D-01  0.497954D+00 -0.138163D-01 -0.285511D-01
     28  0.240739D-01  0.421556D+00  0.263918D-01 -0.137120D+00  0.267936D+00
     29 -0.198325D-01  0.883800D+00 -0.507577D+00  0.123070D+00  0.889558D+00
     30  0.244962D-02  0.488390D+00  0.519391D-01 -0.497314D-02 -0.243286D-01
     31  0.141274D-01  0.466794D+00  0.288239D+00 -0.583660D-01 -0.170641D+00
     32  0.647317D-02  0.559636D+00  0.121464D+00 -0.309708D-01 -0.101039D+00
     33  0.318187D-01  0.140552D+01  0.240352D+02 -0.662494D-01  0.672257D-01
     34 -0.158033D-01 -0.244139D+00 -0.740474D+00  0.377104D-01  0.722341D-01
     35 -0.163345D-01 -0.230873D+00 -0.736322D+00  0.395707D-01  0.692465D-01
     36  0.394323D-03  0.831947D-01 -0.404019D+00  0.286511D-02  0.380890D-01
               11            12            13            14            15 
     11  0.000000D+00
     12 -0.123424D-01  0.000000D+00
     13  0.246300D+00  0.157309D+00  0.000000D+00
     14  0.672089D-01  0.222454D-01  0.267159D+00  0.000000D+00
     15  0.923688D+00  0.190029D+00 -0.625251D+00 -0.134875D+00  0.000000D+00
     16  0.339242D+02  0.306504D+02 -0.176884D+00 -0.119775D-01 -0.312013D+00
     17 -0.256295D+00 -0.156238D+00  0.326726D+02  0.971566D+00  0.351087D+02
     18 -0.393635D-01 -0.232592D-01  0.189989D+02  0.229249D+00  0.853715D+00
     19  0.299767D-01  0.227529D-01  0.312972D+00  0.352375D-01  0.428196D+00
     20  0.785973D+00  0.295431D+00  0.986488D-01  0.149101D-01  0.148799D+00
     21  0.146145D+01  0.339268D+02 -0.962422D-01 -0.124765D-01 -0.118933D+00
     22  0.200996D+01  0.305557D+01 -0.877878D-01 -0.110280D-01 -0.110352D+00
     23 -0.136335D-01 -0.141482D+00  0.126720D-01  0.194259D-02  0.149555D-01
     24 -0.564005D+00 -0.248893D+00  0.901607D-01  0.118225D-01  0.110855D+00
     25  0.756927D-01  0.921470D+00 -0.135083D-01 -0.157410D-02 -0.171962D-01
     26  0.505757D+00  0.708573D+00 -0.126633D-01 -0.156508D-02 -0.159255D-01
     27  0.685739D-01  0.357428D+00  0.126294D-01  0.177118D-02  0.146125D-01
     28 -0.474203D-01 -0.236044D-01  0.968319D+00  0.184620D-01  0.188473D+02
     29  0.229276D+02  0.129599D+01 -0.384771D-01 -0.185991D-01  0.101596D+01
     30 -0.481186D+00  0.384825D-01  0.882012D-02  0.298967D-03  0.166059D+00
     31 -0.757374D+00 -0.255961D+00  0.635273D-01  0.611148D-02  0.189906D+00
     32 -0.718589D+00 -0.110374D+00  0.442871D-01  0.262422D-02  0.255740D+00
     33 -0.505612D+00  0.106751D+01  0.723320D-01  0.101983D-01  0.145199D+00
     34  0.242575D+00  0.476559D+00 -0.333533D-01 -0.495500D-02 -0.410634D-01
     35  0.222417D+00  0.476993D+00 -0.327245D-01 -0.495750D-02 -0.392354D-01
     36  0.709710D-02  0.510451D+00  0.214602D-03 -0.177709D-03  0.349265D-02
               16            17            18            19            20 
     16  0.000000D+00
     17  0.170850D+00  0.000000D+00
     18  0.282367D-01  0.342606D+00  0.000000D+00
     19 -0.246196D-01  0.189631D+02  0.207521D+00  0.000000D+00
     20  0.335123D+02 -0.101613D+00 -0.148758D-01  0.145398D-01  0.000000D+00
     21  0.340497D+00  0.930869D-01  0.153426D-01 -0.129744D-01  0.287141D+01
     22 -0.297718D+00  0.878794D-01  0.133143D-01 -0.129034D-01  0.366585D+02
     23  0.929380D+00 -0.128262D-01 -0.172885D-02  0.204592D-02  0.379375D+00
     24  0.308578D+01 -0.894568D-01 -0.141326D-01  0.125532D-01 -0.552051D+00
     25 -0.140546D+00  0.132722D-01  0.231779D-02 -0.169304D-02  0.843597D+00
     26  0.347830D+00  0.129851D-01  0.207871D-02 -0.176890D-02  0.186742D+02
     27  0.713692D+00 -0.124327D-01 -0.184420D-02  0.185169D-02 -0.156032D+00
     28  0.373505D-01  0.207293D+00  0.264922D-01  0.250078D+00 -0.156408D-01
     29  0.982366D+00  0.166812D+00  0.210474D-01 -0.587670D-02  0.259357D+01
     30  0.732263D+00  0.138690D-01 -0.265412D-03  0.864475D-04  0.243632D+00
     31  0.310334D+00 -0.540310D-01 -0.889063D-02  0.896214D-02 -0.132885D+00
     32  0.591681D+00 -0.103367D-01 -0.386816D-02  0.559719D-02  0.596143D-01
     33  0.139559D+01 -0.483306D-01 -0.863603D-02  0.125764D-01  0.994942D-01
     34 -0.179055D+00  0.330122D-01  0.485546D-02 -0.519046D-02  0.816752D-01
     35 -0.172122D+00  0.335201D-01  0.469535D-02 -0.508149D-02  0.112070D+00
     36 -0.146859D-01  0.409778D-02  0.283105D-03  0.324017D-04  0.112429D-01
               21            22            23            24            25 
     21  0.000000D+00
     22 -0.555345D+00  0.000000D+00
     23  0.847404D+00  0.189844D+02  0.000000D+00
     24  0.368163D+02  0.310630D+02  0.337728D+00  0.000000D+00
     25  0.378231D+00  0.333546D+00  0.193003D+00  0.189701D+02  0.000000D+00
     26 -0.155190D+00  0.166761D+00  0.261307D+00  0.103563D+01  0.286707D-01
     27  0.185684D+02  0.102474D+01  0.270954D-01  0.137587D+00  0.262560D+00
     28  0.149854D-01  0.135954D-01 -0.171673D-02 -0.138928D-01  0.227408D-02
     29  0.553854D-01  0.379159D-01  0.231995D-01  0.234882D+00 -0.162185D-01
     30  0.565716D-01  0.457908D-01 -0.312331D-02  0.412274D-03  0.350750D-02
     31  0.961239D-01  0.116456D+00 -0.171233D-01 -0.986981D-01  0.138775D-01
     32  0.480811D-01  0.510090D-01 -0.456230D-02 -0.259739D-01  0.623585D-02
     33  0.248160D+01  0.242741D+00 -0.182098D-01  0.332752D-01  0.207591D-01
     34 -0.105160D+00 -0.769679D-01  0.116170D-01  0.854603D-01 -0.128905D-01
     35 -0.529796D-01 -0.776658D-01  0.114901D-01  0.906607D-01 -0.129517D-01
     36  0.591292D-01  0.605515D-02  0.354187D-03  0.174860D-02  0.592758D-03
               26            27            28            29            30 
     26  0.000000D+00
     27  0.235953D-01  0.000000D+00
     28  0.218231D-02 -0.182255D-02  0.000000D+00
     29  0.344426D-01  0.578079D-01  0.182943D+00  0.000000D+00
     30  0.416110D-02 -0.816667D-03  0.470587D-03  0.155144D+02  0.000000D+00
     31  0.181329D-01 -0.151054D-01 -0.219162D-01  0.150385D+02 -0.440627D+00
     32 -0.101872D-01 -0.606042D-02  0.158101D-02  0.149659D+02 -0.398076D+00
     33  0.592376D-01  0.296990D-01 -0.937329D-02  0.164342D+00 -0.223667D-01
     34 -0.103417D-01  0.120549D-01  0.484216D-02 -0.101594D+00  0.141324D-01
     35 -0.106189D-01  0.977656D-02  0.482876D-02 -0.945484D-01  0.129338D-01
     36 -0.504556D-03 -0.234675D-01  0.251448D-03 -0.442252D-02  0.467808D-03
               31            32            33            34            35 
     31  0.000000D+00
     32 -0.494448D+00  0.000000D+00
     33 -0.120940D+00 -0.522622D-01  0.000000D+00
     34  0.771047D-01  0.334743D-01  0.151538D+02  0.000000D+00
     35  0.719409D-01  0.298908D-01  0.150152D+02 -0.519149D+00  0.000000D+00
     36  0.258053D-02  0.103016D-02  0.150264D+02 -0.406121D+00 -0.434834D+00
               36 
     36  0.000000D+00
 Fermi Contact (FC) contribution to J (Hz):
                1             2             3             4             5 
      1  0.000000D+00
      2  0.147313D+03  0.000000D+00
      3  0.117988D+01  0.763288D+02  0.000000D+00
      4  0.344168D+01  0.614452D+02 -0.691416D+00  0.000000D+00
      5  0.818955D+01 -0.715637D+00  0.593527D+02  0.518599D+01  0.000000D+00
      6  0.877930D+01  0.248876D+01  0.148362D+03  0.777992D+01  0.343665D+01
      7  0.510248D+01  0.101120D+01  0.413544D+01  0.613277D+02  0.721304D+00
      8  0.377194D+01  0.131223D+01  0.399244D+01  0.722203D+02 -0.984898D+00
      9 -0.143211D+00  0.423819D+01  0.312118D+01 -0.935291D+00  0.678612D+02
     10 -0.978543D+00  0.432608D+01  0.963412D+00  0.912309D+00  0.628710D+02
     11  0.576667D+00  0.297258D+01 -0.935060D+00 -0.142119D+00  0.303728D+01
     12 -0.541730D+00  0.362631D+01 -0.199168D+00  0.247926D+00  0.647363D+00
     13  0.695826D+00  0.205129D+00  0.424259D+01  0.624371D+00 -0.812183D+00
     14  0.346379D+00 -0.276894D+00  0.588066D+01  0.396329D+00  0.296163D+01
     15  0.485664D+00 -0.779143D+00  0.286947D+01  0.279334D+01  0.627648D-01
     16  0.355112D+00 -0.878219D+00  0.635121D+00  0.615516D+01 -0.104094D+00
     17 -0.439743D+00  0.566612D+00 -0.921118D+00 -0.106201D+00  0.693179D+01
     18  0.454590D-02  0.453655D+00  0.395461D-02 -0.362984D+00  0.697040D+01
     19  0.330038D+00 -0.450986D+00  0.632861D+00  0.618455D+00 -0.113968D+01
     20 -0.208104D+00  0.461555D+00 -0.429724D+00 -0.107525D+01  0.472794D+00
     21  0.260200D+00  0.162055D+00  0.578539D+00  0.330263D+01 -0.369906D+00
     22  0.178176D+00 -0.464547D+00  0.380269D+00  0.930643D+00 -0.312679D+00
     23 -0.116605D+00  0.313166D+00 -0.260122D+00 -0.553985D+00  0.227140D+00
     24 -0.170331D+00  0.650148D+00 -0.315398D+00 -0.475796D+00  0.345366D+00
     25  0.865486D-01 -0.156533D+00  0.190780D+00  0.837729D+00 -0.190106D+00
     26  0.912313D-01 -0.230727D+00  0.188763D+00  0.505088D+00 -0.194357D+00
     27 -0.107305D+00  0.354001D+00 -0.223788D+00 -0.777716D+00  0.198815D+00
     28 -0.185133D+00  0.252521D+00  0.971847D+00 -0.465222D+00  0.608718D+01
     29  0.525427D+00  0.175475D+00  0.244739D+00  0.313201D+01 -0.452735D+00
     30 -0.700363D-01  0.123772D+00 -0.109142D+00 -0.489990D+00  0.859369D-01
     31 -0.377801D+00  0.693854D+00 -0.660343D+00 -0.236782D+01  0.866670D+00
     32 -0.543618D-01  0.581895D+00 -0.332025D+00 -0.682371D+00  0.419843D+00
     33  0.245307D+00  0.542494D+01  0.639285D-01  0.198725D+01  0.407528D+00
     34  0.319122D+00 -0.407920D+00  0.758276D+00  0.273801D+01 -0.539381D+00
     35  0.997179D-01 -0.160224D+00  0.830923D+00  0.344262D+01 -0.443686D+00
     36  0.225959D-01  0.225285D+01  0.205156D+00  0.658969D+01  0.139986D+00
                6             7             8             9            10 
      6  0.000000D+00
      7 -0.100865D+01  0.000000D+00
      8 -0.260926D+00  0.686846D-01  0.000000D+00
      9  0.499969D+01  0.270060D+01  0.448197D+00  0.000000D+00
     10  0.490846D+01  0.631294D+02  0.288111D+01  0.592982D+00  0.000000D+00
     11  0.548904D+00  0.735273D+02  0.449402D+01 -0.650915D-01  0.174104D+01
     12  0.887822D+00  0.498829D+01  0.682586D+02 -0.352101D+00 -0.914519D+00
     13 -0.199901D+00 -0.896939D+00 -0.389027D+00  0.691479D+02  0.593585D+01
     14 -0.443657D+00  0.618858D+00 -0.223199D+00  0.147163D+03  0.579658D+01
     15  0.633164D+00  0.179284D+01 -0.300508D-01  0.622815D+01  0.674406D+02
     16 -0.465550D+00  0.607238D+00  0.297692D+00  0.505025D+00  0.397306D+01
     17  0.359522D+00  0.361758D+01  0.520106D+00 -0.854294D+00 -0.519706D+00
     18  0.130302D+00  0.556324D+00  0.210059D+00  0.274566D+01 -0.122507D+01
     19 -0.206911D+00  0.251455D+00 -0.139685D+00  0.722388D+01  0.740469D+01
     20  0.309015D+00  0.346814D+01  0.308894D+01 -0.170302D+00 -0.905764D-03
     21 -0.211885D+00 -0.103918D+01  0.140863D+01  0.206749D+00  0.425531D+00
     22 -0.279011D+00 -0.355014D+00 -0.112140D+01  0.192748D+00  0.571427D+00
     23  0.199053D+00  0.824654D+00  0.629250D+00 -0.101286D+00 -0.135512D+00
     24  0.274694D+00  0.875126D+00  0.386727D+01 -0.190211D+00 -0.418554D+00
     25 -0.101976D+00 -0.513676D+00 -0.578734D-01  0.110338D+00  0.263538D+00
     26 -0.134501D+00 -0.694373D+00  0.559748D+00  0.102599D+00  0.286255D+00
     27  0.166430D+00  0.466727D+00  0.390739D+01 -0.108415D+00 -0.224038D+00
     28  0.751104D+00  0.330791D+01  0.207094D+00 -0.107597D+01  0.210247D+01
     29 -0.155623D+00  0.174420D+01 -0.100172D+01  0.242882D+00  0.175556D+01
     30  0.764281D-01  0.383235D+01  0.407561D+00 -0.390238D-01 -0.190904D+00
     31  0.440774D+00  0.366289D+01  0.226178D+01 -0.457992D+00 -0.133900D+01
     32  0.201963D+00  0.439141D+01  0.953113D+00 -0.243025D+00 -0.792841D+00
     33  0.249678D+00  0.277383D+01  0.474340D+02 -0.130745D+00  0.132672D+00
     34 -0.493063D+00 -0.191573D+01 -0.581043D+01  0.295910D+00  0.566814D+00
     35 -0.509635D+00 -0.181164D+01 -0.577785D+01  0.310507D+00  0.543371D+00
     36  0.123029D-01  0.652820D+00 -0.317030D+01  0.224822D-01  0.298881D+00
               11            12            13            14            15 
     11  0.000000D+00
     12 -0.243581D-01  0.000000D+00
     13  0.486078D+00  0.310454D+00  0.000000D+00
     14  0.527381D+00  0.174558D+00  0.209637D+01  0.000000D+00
     15  0.182292D+01  0.375028D+00 -0.123395D+01 -0.105835D+01  0.000000D+00
     16  0.669502D+02  0.604893D+02 -0.349084D+00 -0.939865D-01 -0.615765D+00
     17 -0.505804D+00 -0.308340D+00  0.644801D+02  0.762378D+01  0.692879D+02
     18 -0.308882D+00 -0.182512D+00  0.149082D+03  0.715255D+01  0.669902D+01
     19  0.235224D+00  0.178540D+00  0.245586D+01  0.109941D+01  0.336001D+01
     20  0.155114D+01  0.583041D+00  0.194686D+00  0.116998D+00  0.293659D+00
     21  0.288421D+01  0.669554D+02 -0.189936D+00 -0.979017D-01 -0.234717D+00
     22  0.396670D+01  0.603024D+01 -0.173251D+00 -0.865358D-01 -0.217783D+00
     23 -0.106981D+00 -0.111019D+01  0.994362D-01  0.606087D-01  0.117354D+00
     24 -0.111308D+01 -0.491196D+00  0.177934D+00  0.927701D-01  0.218776D+00
     25  0.593954D+00  0.723068D+01 -0.105999D+00 -0.491119D-01 -0.134937D+00
     26  0.396862D+01  0.556011D+01 -0.993677D-01 -0.488305D-01 -0.124966D+00
     27  0.538093D+00  0.280470D+01  0.991015D-01  0.552607D-01  0.114663D+00
     28 -0.372103D+00 -0.185221D+00  0.759830D+01  0.576012D+00  0.147893D+03
     29  0.452481D+02  0.255766D+01 -0.759355D-01 -0.145945D+00  0.200502D+01
     30 -0.377582D+01  0.301968D+00  0.692106D-01  0.932775D-02  0.130305D+01
     31 -0.594304D+01 -0.200850D+01  0.498492D+00  0.190678D+00  0.149018D+01
     32 -0.563870D+01 -0.866098D+00  0.347517D+00  0.818756D-01  0.200677D+01
     33 -0.997837D+00  0.210676D+01  0.142749D+00  0.800254D-01  0.286554D+00
     34  0.190346D+01  0.373951D+01 -0.261720D+00 -0.154596D+00 -0.322220D+00
     35  0.174529D+01  0.374292D+01 -0.256786D+00 -0.154674D+00 -0.307876D+00
     36  0.556902D-01  0.400546D+01  0.168396D-02 -0.554452D-02  0.274065D-01
               16            17            18            19            20 
     16  0.000000D+00
     17  0.337177D+00  0.000000D+00
     18  0.221571D+00  0.268840D+01  0.000000D+00
     19 -0.193188D+00  0.148801D+03  0.647464D+01  0.000000D+00
     20  0.661374D+02 -0.200536D+00 -0.116729D+00  0.114093D+00  0.000000D+00
     21  0.671979D+00  0.183709D+00  0.120392D+00 -0.101809D+00  0.566680D+01
     22 -0.587554D+00  0.173432D+00  0.104476D+00 -0.101252D+00  0.723465D+02
     23  0.729275D+01 -0.100646D+00 -0.539402D-01  0.638326D-01  0.297692D+01
     24  0.608986D+01 -0.176545D+00 -0.110897D+00  0.985034D-01 -0.108949D+01
     25 -0.110285D+01  0.104146D+00  0.723149D-01 -0.528228D-01  0.661963D+01
     26  0.272939D+01  0.101893D+00  0.648557D-01 -0.551895D-01  0.146535D+03
     27  0.560027D+01 -0.975582D-01 -0.575390D-01  0.577728D-01 -0.122437D+01
     28  0.293086D+00  0.162661D+01  0.826556D+00  0.780244D+01 -0.122732D+00
     29  0.193872D+01  0.329208D+00  0.165157D+00 -0.461139D-01  0.511848D+01
     30  0.574600D+01  0.108829D+00 -0.828085D-02  0.269716D-02  0.191175D+01
     31  0.243516D+01 -0.423976D+00 -0.277387D+00  0.279618D+00 -0.104273D+01
     32  0.464286D+01 -0.811114D-01 -0.120686D+00  0.174632D+00  0.467788D+00
     33  0.275424D+01 -0.953815D-01 -0.677661D-01  0.986860D-01  0.196354D+00
     34 -0.140503D+01  0.259043D+00  0.151490D+00 -0.161942D+00  0.640897D+00
     35 -0.135062D+01  0.263029D+00  0.146495D+00 -0.158542D+00  0.879402D+00
     36 -0.115239D+00  0.321549D-01  0.883286D-02  0.101093D-02  0.882221D-01
               21            22            23            24            25 
     21  0.000000D+00
     22 -0.109599D+01  0.000000D+00
     23  0.664950D+01  0.148969D+03  0.000000D+00
     24  0.726579D+02  0.613037D+02  0.265012D+01  0.000000D+00
     25  0.296794D+01  0.261730D+01  0.602168D+01  0.148857D+03  0.000000D+00
     26 -0.121776D+01  0.130856D+01  0.815277D+01  0.812653D+01  0.894525D+00
     27  0.145704D+03  0.804103D+01  0.845375D+00  0.107963D+01  0.819187D+01
     28  0.117589D+00  0.106682D+00 -0.535618D-01 -0.109015D+00  0.709512D-01
     29  0.109304D+00  0.748280D-01  0.182044D+00  0.463546D+00 -0.127265D+00
     30  0.443912D+00  0.359316D+00 -0.974472D-01  0.323507D-02  0.109434D+00
     31  0.754275D+00  0.913817D+00 -0.534248D+00 -0.774474D+00  0.432978D+00
     32  0.377288D+00  0.400263D+00 -0.142344D+00 -0.203814D+00  0.194558D+00
     33  0.489749D+01  0.479055D+00 -0.142891D+00  0.656694D-01  0.162895D+00
     34 -0.825179D+00 -0.603959D+00  0.362451D+00  0.670599D+00 -0.402184D+00
     35 -0.415726D+00 -0.609436D+00  0.358491D+00  0.711406D+00 -0.404093D+00
     36  0.463981D+00  0.475141D-01  0.110506D-01  0.137211D-01  0.184940D-01
               26            27            28            29            30 
     26  0.000000D+00
     27  0.736172D+00  0.000000D+00
     28  0.680881D-01 -0.568633D-01  0.000000D+00
     29  0.270268D+00  0.453613D+00  0.143554D+01  0.000000D+00
     30  0.129826D+00 -0.254800D-01  0.146823D-01  0.121740D+03  0.000000D+00
     31  0.565745D+00 -0.471289D+00 -0.683783D+00  0.118006D+03 -0.137475D+02
     32 -0.317840D+00 -0.189085D+00  0.493273D-01  0.117436D+03 -0.124199D+02
     33  0.464831D+00  0.233045D+00 -0.735513D-01  0.324332D+00 -0.175509D+00
     34 -0.322662D+00  0.376111D+00  0.151075D+00 -0.797201D+00  0.440929D+00
     35 -0.331309D+00  0.305028D+00  0.150657D+00 -0.741912D+00  0.403533D+00
     36 -0.157421D-01 -0.732184D+00  0.784518D-02 -0.347031D-01  0.145956D-01
               31            32            33            34            35 
     31  0.000000D+00
     32 -0.154268D+02  0.000000D+00
     33 -0.949001D+00 -0.410096D+00  0.000000D+00
     34  0.240566D+01  0.104440D+01  0.118910D+03  0.000000D+00
     35  0.224455D+01  0.932590D+00  0.117823D+03 -0.161974D+02  0.000000D+00
     36  0.805123D-01  0.321408D-01  0.117911D+03 -0.126709D+02 -0.135668D+02
               36 
[...]
    28  H   -0.000002  -0.001152   0.003688   0.003921   0.005011   0.000014
    29  C   -0.000964  -0.066572  -0.300353  -0.051974   0.627611  -0.000218
    30  H    0.000001   0.007073   0.000435   0.005150   0.000591   0.000000
    31  H    0.000000  -0.002850  -0.002813  -0.008322   0.007060   0.000000
    32  H   -0.000001  -0.001045   0.001562  -0.006322  -0.003679   0.000000
    33  C    0.013474  -0.531527  -0.775110   1.597271   0.273089   0.001035
    34  H   -0.003853   0.106640   0.052453  -0.082034   0.003109   0.000022
    35  H   -0.002596  -0.037549  -0.033338   0.072384  -0.000539   0.000027
    36  H    0.001214  -0.028338  -0.004815   0.002257  -0.001063  -0.000004
              7          8          9         10         11         12
     1  H    0.016838   0.024902  -0.005305  -0.010180  -0.004939   0.003478
     2  C    0.436517  -0.504369   0.258416  -0.969178  -0.613158   0.094526
     3  C    1.118175  -0.534283   0.726255  -1.206031  -0.312850   0.351632
     4  C   -1.323633   0.556421  -0.622743   0.145834   1.280235  -0.569712
     5  C   -0.224158   0.126303  -2.077676   0.261340  -0.741973  -0.384907
     6  H   -0.008569  -0.002622   0.060781   0.001753  -0.000361   0.001557
     7  C    7.833554   0.355207  -0.460455   0.934755  -0.835926   0.170639
     8  C    0.355207   8.776520   0.051379  -0.040179  -0.081713   0.064679
     9  C   -0.460455   0.051379   8.452274  -1.885759   0.113147   0.124759
    10  C    0.934755  -0.040179  -1.885759  10.185128   0.658888  -0.409426
    11  C   -0.835926  -0.081713   0.113147   0.658888  10.312459   0.239744
    12  C    0.170639   0.064679   0.124759  -0.409426   0.239744   7.630930
    13  C    0.128859  -0.069221  -0.117765   1.562356   0.017533  -0.025276
    14  H   -0.013087   0.000513   0.416753  -0.018734  -0.000118  -0.000261
    15  C   -0.591211  -0.000431   1.475374  -1.943590  -0.299804   0.027100
    16  C    0.519558   0.673163   0.057391  -0.144890   0.710828   0.927315
    17  C   -0.142462  -0.042391  -0.343464  -1.177763  -0.013036   0.019701
    18  H    0.000082   0.000017  -0.033570  -0.013600   0.000734   0.000059
    19  H   -0.002899  -0.000481  -0.014788   0.055476   0.003772  -0.000059
    20  C   -0.951793  -1.916410   0.020158  -0.495606  -0.753991   1.046459
    21  C   -0.515953  -0.939344   0.046354  -0.084319  -0.998030  -0.506093
    22  C   -0.058917  -0.024721  -0.005018  -0.008403  -0.192162   0.104097
    23  H    0.002983  -0.000003   0.000001  -0.000239  -0.001272   0.005184
    24  C   -0.022307  -0.195444   0.001972   0.008392  -0.057517  -0.882159
    25  H    0.001137  -0.004103   0.000001   0.000120   0.003205   0.030981
    26  H    0.003917  -0.006074  -0.000041   0.000775  -0.009207   0.019973
    27  H    0.006085   0.008397   0.000005   0.000220  -0.011095  -0.043924
    28  H   -0.021580  -0.005330  -0.008359  -0.024661   0.033814   0.002915
    29  C    0.628288   0.905860  -0.214788   0.152216  -3.276572  -1.421783
    30  H    0.047455   0.003652   0.000071   0.040301  -0.077746  -0.008497
    31  H    0.016987   0.007703   0.001393   0.014138  -0.066446  -0.000068
    32  H   -0.032176  -0.015114  -0.000703  -0.023911   0.002215   0.017297
    33  C   -1.210001  -1.300147  -0.057991   0.172859   0.538970  -1.030137
    34  H    0.039340  -0.007517   0.000359   0.001766  -0.009080   0.018740
    35  H   -0.020308  -0.048235  -0.001711  -0.000118   0.021098   0.016375
    36  H   -0.003334  -0.023739   0.000154   0.000461  -0.010237  -0.059207
             13         14         15         16         17         18
     1  H   -0.001687  -0.000017  -0.001348   0.009486   0.000175   0.000000
     2  C   -0.369374   0.035078   0.365992  -0.404966   0.019378   0.002216
     3  C   -0.951672   0.077070   0.373932   0.196868   0.347144   0.014813
     4  C   -0.216134   0.007806  -0.284594  -0.787154  -0.045505   0.000724
     5  C   -0.354383  -0.116978  -0.153592  -0.496861   0.272714   0.031789
     6  H    0.016956   0.002455   0.005099   0.000393   0.001602  -0.000020
     7  C    0.128859  -0.013087  -0.591211   0.519558  -0.142462   0.000082
     8  C   -0.069221   0.000513  -0.000431   0.673163  -0.042391   0.000017
     9  C   -0.117765   0.416753   1.475374   0.057391  -0.343464  -0.033570
    10  C    1.562356  -0.018734  -1.943590  -0.144890  -1.177763  -0.013600
    11  C    0.017533  -0.000118  -0.299804   0.710828  -0.013036   0.000734
    12  C   -0.025276  -0.000261   0.027100   0.927315   0.019701   0.000059
    13  C    6.859574  -0.049809  -0.656871  -0.023834   0.261949   0.356407
    14  H   -0.049809   0.553603   0.002125  -0.000540  -0.006054  -0.007713
    15  C   -0.656871   0.002125   8.589071  -0.288192  -0.429100  -0.003085
    16  C   -0.023834  -0.000540  -0.288192   8.059893   0.002819   0.000080
    17  C    0.261949  -0.006054  -0.429100   0.002819   7.319779  -0.010339
    18  H    0.356407  -0.007713  -0.003085   0.000080  -0.010339   0.543984
    19  H   -0.012117  -0.000319  -0.062901  -0.000013   0.397451  -0.007516
    20  C    0.001214  -0.000017  -0.006712  -1.288863   0.065274   0.000003
    21  C   -0.009142  -0.000011   0.035565  -0.529447   0.001375   0.000003
    22  C    0.000300   0.000001  -0.009899  -0.861410   0.006775   0.000000
    23  H    0.000001   0.000000   0.000087   0.038313   0.000001   0.000000
    24  C   -0.000068  -0.000001   0.008583  -0.048227   0.001613   0.000000
    25  H    0.000000   0.000000  -0.000024   0.009638  -0.000003   0.000000
    26  H   -0.000020   0.000000   0.002233  -0.044437   0.000429   0.000000
    27  H   -0.000001   0.000000   0.000176   0.018448   0.000012   0.000000
    28  H    0.002489   0.000084   0.384762   0.005366  -0.039722  -0.000351
    29  C    0.018964   0.000372   0.021880  -0.116259  -0.073232  -0.000360
    30  H    0.001472  -0.000001   0.019557  -0.010818  -0.037573   0.000005
    31  H   -0.003885   0.000000  -0.030861   0.010511  -0.040310   0.000000
    32  H    0.000060   0.000000   0.018715  -0.042340   0.012633   0.000000
    33  C    0.000349   0.000148  -0.048082  -0.735499  -0.010421  -0.000007
    34  H    0.000095   0.000000   0.001483  -0.006830   0.000016   0.000000
    35  H   -0.000122   0.000000  -0.000184  -0.004610   0.000054   0.000000
    36  H   -0.000012   0.000000  -0.000094   0.013181  -0.000006   0.000000
             19         20         21         22         23         24
     1  H    0.000000   0.000364   0.004501   0.000136   0.000000  -0.000117
     2  C   -0.000590   0.046315  -0.238437  -0.077991   0.000243  -0.017386
     3  C   -0.002399   0.136924  -0.040490  -0.016000   0.000019  -0.004022
     4  C    0.000169  -0.705134  -0.863760  -0.086202   0.001868   0.091478
     5  C   -0.012021  -0.247691  -0.086949  -0.008827   0.000024  -0.001213
     6  H   -0.000002   0.000057  -0.000011  -0.000007   0.000000  -0.000008
     7  C   -0.002899  -0.951793  -0.515953  -0.058917   0.002983  -0.022307
     8  C   -0.000481  -1.916410  -0.939344  -0.024721  -0.000003  -0.195444
     9  C   -0.014788   0.020158   0.046354  -0.005018   0.000001   0.001972
    10  C    0.055476  -0.495606  -0.084319  -0.008403  -0.000239   0.008392
    11  C    0.003772  -0.753991  -0.998030  -0.192162  -0.001272  -0.057517
    12  C   -0.000059   1.046459  -0.506093   0.104097   0.005184  -0.882159
    13  C   -0.012117   0.001214  -0.009142   0.000300   0.000001  -0.000068
    14  H   -0.000319  -0.000017  -0.000011   0.000001   0.000000  -0.000001
    15  C   -0.062901  -0.006712   0.035565  -0.009899   0.000087   0.008583
    16  C   -0.000013  -1.288863  -0.529447  -0.861410   0.038313  -0.048227
    17  C    0.397451   0.065274   0.001375   0.006775   0.000001   0.001613
    18  H   -0.007516   0.000003   0.000003   0.000000   0.000000   0.000000
    19  H    0.544765   0.000144  -0.000017   0.000008   0.000000   0.000000
    20  C    0.000144  11.397078   2.078434   0.456380  -0.080018  -0.278153
    21  C   -0.000017   2.078434   9.182182  -0.339284  -0.017552   0.559848
    22  C    0.000008   0.456380  -0.339284   6.674130   0.404359   0.642452
    23  H    0.000000  -0.080018  -0.017552   0.404359   0.546557  -0.006860
    24  C    0.000000  -0.278153   0.559848   0.642452  -0.006860   6.200873
    25  H    0.000000  -0.009999  -0.128078   0.012815  -0.007099   0.427195
    26  H    0.000000   0.386264  -0.006057  -0.033060  -0.008505   0.001191
    27  H    0.000000  -0.008079   0.394375  -0.005279  -0.000352  -0.037744
    28  H   -0.007915   0.002515   0.000289  -0.000603   0.000000  -0.000001
    29  C   -0.000910  -1.830982  -0.202567  -0.115862  -0.000073  -0.035865
    30  H    0.000065  -0.033449  -0.002968  -0.000999  -0.000004  -0.000210
    31  H    0.000014   0.012604   0.001382   0.006085   0.000002   0.000229
    32  H   -0.000008   0.103755   0.006106   0.015688   0.000067   0.002144
    33  C   -0.000026  -0.612867  -0.385603   0.072632  -0.000618   0.032901
    34  H    0.000000  -0.001100  -0.054922  -0.001787   0.000000  -0.006979
    35  H    0.000000  -0.003695  -0.015969  -0.000479   0.000000   0.003422
    36  H    0.000000   0.006703   0.096768   0.002813  -0.000001   0.009408
             25         26         27         28         29         30
     1  H    0.000000   0.000000  -0.000013  -0.000002  -0.000964   0.000001
     2  C   -0.000112  -0.000693   0.005158  -0.001152  -0.066572   0.007073
     3  C   -0.000002   0.000013   0.000720   0.003688  -0.300353   0.000435
     4  C    0.003042  -0.000746   0.004619   0.003921  -0.051974   0.005150
     5  C    0.000025  -0.000004   0.000068   0.005011   0.627611   0.000591
     6  H    0.000000   0.000000   0.000000   0.000014  -0.000218   0.000000
     7  C    0.001137   0.003917   0.006085  -0.021580   0.628288   0.047455
     8  C   -0.004103  -0.006074   0.008397  -0.005330   0.905860   0.003652
     9  C    0.000001  -0.000041   0.000005  -0.008359  -0.214788   0.000071
    10  C    0.000120   0.000775   0.000220  -0.024661   0.152216   0.040301
    11  C    0.003205  -0.009207  -0.011095   0.033814  -3.276572  -0.077746
    12  C    0.030981   0.019973  -0.043924   0.002915  -1.421783  -0.008497
    13  C    0.000000  -0.000020  -0.000001   0.002489   0.018964   0.001472
    14  H    0.000000   0.000000   0.000000   0.000084   0.000372  -0.000001
    15  C   -0.000024   0.002233   0.000176   0.384762   0.021880   0.019557
    16  C    0.009638  -0.044437   0.018448   0.005366  -0.116259  -0.010818
    17  C   -0.000003   0.000429   0.000012  -0.039722  -0.073232  -0.037573
    18  H    0.000000   0.000000   0.000000  -0.000351  -0.000360   0.000005
    19  H    0.000000   0.000000   0.000000  -0.007915  -0.000910   0.000065
    20  C   -0.009999   0.386264  -0.008079   0.002515  -1.830982  -0.033449
    21  C   -0.128078  -0.006057   0.394375   0.000289  -0.202567  -0.002968
    22  C    0.012815  -0.033060  -0.005279  -0.000603  -0.115862  -0.000999
    23  H   -0.007099  -0.008505  -0.000352   0.000000  -0.000073  -0.000004
    24  C    0.427195   0.001191  -0.037744  -0.000001  -0.035865  -0.000210
    25  H    0.547928  -0.000338  -0.009150   0.000000  -0.000312   0.000000
    26  H   -0.000338   0.548872   0.000081  -0.000083   0.017822   0.001111
    27  H   -0.009150   0.000081   0.563266   0.000000  -0.002369   0.000000
    28  H    0.000000  -0.000083   0.000000   0.536143  -0.006597  -0.011027
    29  C   -0.000312   0.017822  -0.002369  -0.006597  10.695219   0.419474
    30  H    0.000000   0.001111   0.000000  -0.011027   0.419474   0.509314
    31  H    0.000000  -0.001456  -0.000001   0.000896   0.426040  -0.027744
    32  H    0.000000  -0.004496   0.000003   0.001754   0.303556  -0.023944
    33  C    0.001184  -0.001196  -0.004749  -0.000522   0.270628   0.000455
    34  H   -0.000001   0.000000  -0.000055   0.000000  -0.001025   0.000000
    35  H   -0.000005   0.000000   0.000160   0.000000   0.002336  -0.000001
    36  H    0.000023   0.000003   0.003811   0.000000  -0.000678   0.000000
             31         32         33         34         35         36
     1  H    0.000000  -0.000001   0.013474  -0.003853  -0.002596   0.001214
     2  C   -0.002850  -0.001045  -0.531527   0.106640  -0.037549  -0.028338
     3  C   -0.002813   0.001562  -0.775110   0.052453  -0.033338  -0.004815
     4  C   -0.008322  -0.006322   1.597271  -0.082034   0.072384   0.002257
     5  C    0.007060  -0.003679   0.273089   0.003109  -0.000539  -0.001063
     6  H    0.000000   0.000000   0.001035   0.000022   0.000027  -0.000004
     7  C    0.016987  -0.032176  -1.210001   0.039340  -0.020308  -0.003334
     8  C    0.007703  -0.015114  -1.300147  -0.007517  -0.048235  -0.023739
     9  C    0.001393  -0.000703  -0.057991   0.000359  -0.001711   0.000154
    10  C    0.014138  -0.023911   0.172859   0.001766  -0.000118   0.000461
    11  C   -0.066446   0.002215   0.538970  -0.009080   0.021098  -0.010237
    12  C   -0.000068   0.017297  -1.030137   0.018740   0.016375  -0.059207
    13  C   -0.003885   0.000060   0.000349   0.000095  -0.000122  -0.000012
    14  H    0.000000   0.000000   0.000148   0.000000   0.000000   0.000000
    15  C   -0.030861   0.018715  -0.048082   0.001483  -0.000184  -0.000094
    16  C    0.010511  -0.042340  -0.735499  -0.006830  -0.004610   0.013181
    17  C   -0.040310   0.012633  -0.010421   0.000016   0.000054  -0.000006
    18  H    0.000000   0.000000  -0.000007   0.000000   0.000000   0.000000
    19  H    0.000014  -0.000008  -0.000026   0.000000   0.000000   0.000000
    20  C    0.012604   0.103755  -0.612867  -0.001100  -0.003695   0.006703
    21  C    0.001382   0.006106  -0.385603  -0.054922  -0.015969   0.096768
    22  C    0.006085   0.015688   0.072632  -0.001787  -0.000479   0.002813
    23  H    0.000002   0.000067  -0.000618   0.000000   0.000000  -0.000001
    24  C    0.000229   0.002144   0.032901  -0.006979   0.003422   0.009408
    25  H    0.000000   0.000000   0.001184  -0.000001  -0.000005   0.000023
    26  H   -0.001456  -0.004496  -0.001196   0.000000   0.000000   0.000003
    27  H   -0.000001   0.000003  -0.004749  -0.000055   0.000160   0.003811
    28  H    0.000896   0.001754  -0.000522   0.000000   0.000000   0.000000
    29  C    0.426040   0.303556   0.270628  -0.001025   0.002336  -0.000678
    30  H   -0.027744  -0.023944   0.000455   0.000000  -0.000001   0.000000
    31  H    0.539548  -0.031955   0.000533  -0.000001   0.000001   0.000000
    32  H   -0.031955   0.545997  -0.001508   0.000001  -0.000001  -0.000001
    33  C    0.000533  -0.001508   9.135682   0.298746   0.402338   0.367855
    34  H   -0.000001   0.000001   0.298746   0.542070  -0.035316  -0.024606
    35  H    0.000001  -0.000001   0.402338  -0.035316   0.554971  -0.027337
    36  H    0.000000  -0.000001   0.367855  -0.024606  -0.027337   0.542878
 Mulliken atomic charges:
              1
     1  H    0.133055
     2  C   -0.473240
     3  C   -0.537681
     4  C    0.713315
     5  C    0.326211
     6  H    0.115753
     7  C    0.178392
     8  C    0.207155
     9  C    0.043138
    10  C    0.259806
    11  C    0.430593
    12  C    0.423373
    13  C   -0.367186
    14  H    0.117652
    15  C   -0.521161
    16  C    0.581939
    17  C   -0.319513
    18  H    0.125645
    19  H    0.123118
    20  C   -0.536089
    21  C   -0.442180
    22  C   -0.551763
    23  H    0.122885
    24  C   -0.397418
    25  H    0.121930
    26  H    0.133730
    27  H    0.117208
    28  H    0.144243
    29  C   -0.769955
    30  H    0.178800
    31  H    0.171587
    32  H    0.155647
    33  C   -0.474140
    34  H    0.170265
    35  H    0.158947
    36  H    0.135941
 Sum of Mulliken atomic charges =   0.00000
 Mulliken charges with hydrogens summed into heavy atoms:
              1
     2  C   -0.340186
     3  C   -0.421928
     4  C    0.713315
     5  C    0.326211
     7  C    0.178392
     8  C    0.207155
     9  C    0.160790
    10  C    0.259806
    11  C    0.430593
    12  C    0.423373
    13  C   -0.241541
    15  C   -0.376919
    16  C    0.581939
    17  C   -0.196396
    20  C   -0.402359
    21  C   -0.324973
    22  C   -0.428878
    24  C   -0.275488
    29  C   -0.263922
    33  C   -0.008987
 Sum of Mulliken charges with hydrogens summed into heavy atoms =   0.00000
 Electronic spatial extent (au):  <R**2>=           5635.2267
 Charge=              0.0000 electrons
 Dipole moment (field-independent basis, Debye):
    X=              0.0626    Y=              0.0829    Z=              0.0006  Tot=              0.1038
 Quadrupole moment (field-independent basis, Debye-Ang):
   XX=           -106.8319   YY=           -104.8463   ZZ=           -125.0576
   XY=              0.4856   XZ=             -0.5703   YZ=              0.6601
 Traceless Quadrupole moment (field-independent basis, Debye-Ang):
   XX=              5.4133   YY=              7.3990   ZZ=            -12.8123
   XY=              0.4856   XZ=             -0.5703   YZ=              0.6601
 Octapole moment (field-independent basis, Debye-Ang**2):
  XXX=             -5.0774  YYY=              2.0093  ZZZ=              2.5810  XYY=              2.0778
  XXY=              1.3725  XXZ=             -9.6966  XZZ=              1.1273  YZZ=             -0.5143
  YYZ=             -0.5553  XYZ=             -9.0071
 Hexadecapole moment (field-independent basis, Debye-Ang**3):
 XXXX=          -5228.5077 YYYY=          -1957.1666 ZZZZ=           -232.4590 XXXY=            -14.2292
 XXXZ=            -30.3507 YYYX=             -8.8431 YYYZ=             14.5175 ZZZX=              1.2003
 ZZZY=             -6.6514 XXYY=          -1198.7945 XXZZ=          -1096.9084 YYZZ=           -394.6497
 XXYZ=             21.1558 YYXZ=              8.3225 ZZXY=             11.0997
 N-N= 1.402498032594D+03 E-N=-4.594940936615D+03  KE= 7.682653580877D+02
 Calculating spin-rotation constants.
 Leave Link  601 at Mon Sep 23 19:47:51 2013, MaxMem= 1769472000 cpu:     170.9
 (Enter /usr/g09/l9999.exe)
 1\1\GINC-BISHOP\SP\RB3LYP\6-311+G(d,p)\C20H16\JEANNERA\23-Sep-2013\0\\
 #p B3LYP/6-311+G** NMR=SPINSPIN\\empty\\0,1\H,0,0.605961,3.356047,-0.2
 2931\C,0,0.959449,2.333139,-0.185535\C,0,2.28876,2.094149,-0.288069\C,
 0,-0.00901,1.268163,-0.055086\C,0,2.815651,0.766903,-0.13278\H,0,2.988
 182,2.91617,-0.421053\C,0,0.464782,-0.100661,-0.087992\C,0,-1.377796,1
 .570634,0.033063\C,0,4.208743,0.560003,-0.060688\C,0,1.915474,-0.32567
 5,0.039552\C,0,-0.475447,-1.132235,-0.264049\C,0,-2.318887,0.509034,0.
 094697\C,0,4.733057,-0.684289,0.24241\H,0,4.868068,1.41045,-0.218815\C
 ,0,2.483379,-1.562142,0.425855\C,0,-1.861991,-0.844267,-0.103345\C,0,3
 .856545,-1.742928,0.518639\H,0,5.808229,-0.829383,0.302091\H,0,4.24842
 1,-2.709901,0.822584\C,0,-2.835892,-1.890331,-0.106459\C,0,-3.71692,0.
 720748,0.306418\C,0,-4.170297,-1.641762,0.099167\H,0,-4.881528,-2.4633
 01,0.110927\C,0,-4.616436,-0.31587,0.311974\H,0,-5.670912,-0.118621,0.
 48557\H,0,-2.511088,-2.915939,-0.236342\H,0,-4.084773,1.723438,0.48800
 8\H,0,1.841409,-2.38612,0.704746\C,0,-0.093873,-2.526898,-0.725014\H,0
 ,0.886068,-2.534848,-1.203431\H,0,-0.077527,-3.271555,0.082768\H,0,-0.
 815663,-2.880319,-1.467758\C,0,-1.818579,3.02133,0.045744\H,0,-1.41395
 1,3.562143,0.910111\H,0,-1.473693,3.546432,-0.852971\H,0,-2.901459,3.1
 33047,0.071858\\Version=AM64L-G09RevC.01\State=1-A\HF=-771.9737646\RMS
 D=6.876e-09\Dipole=-0.0246186,0.0326057,-0.0002413\Quadrupole=4.024679
 9,5.5009863,-9.5256663,-0.3610029,-0.4240043,-0.4907776\PG=C01 [X(C20H
 16)]\\@


 MY DESCRIPTION OF EXPERIENCE IS NOT WHAT HAPPENS
 TO A MAN.  EXPERIENCE IS WHAT A MAN DOES WITH WHAT
 HAPPENS TO HIM.
                         - CHUCK KNOX, SEATTLE SEAHAWKS, 1985
 Job cpu time:  1 days 15 hours 41 minutes  8.5 seconds.
 File lengths (MBytes):  RWF=   2663 Int=      0 D2E=      0 Chk=     16 Scr=      1
 Normal termination of Gaussian 09 at Mon Sep 23 19:47:51 2013.
